n -t * -s 0  -x 199 -y 443 -Z 0 -z 20  -v circle -c green
n -t * -s 1  -x 361 -y 432 -Z 0 -z 20  -v circle -c green
n -t * -s 2  -x 363 -y 287 -Z 0 -z 20  -v circle -c green
n -t * -s 3  -x 210 -y 271 -Z 0 -z 20  -v circle -c green
n -t * -s 4  -x 246 -y 139 -Z 0 -z 20  -v circle -c green
n -t * -s 5  -x 402 -y 141 -Z 0 -z 20  -v circle -c green
n -t * -s 6  -x 499 -y 261 -Z 0 -z 20  -v circle -c green
n -t * -s 7  -x 564 -y 418 -Z 0 -z 20  -v circle -c green
n -t * -s 8  -x 609 -y 292 -Z 0 -z 20  -v circle -c green
n -t * -s 9  -x 542 -y 115 -Z 0 -z 20  -v circle -c green
n -t * -s 10  -x 370 -y 41 -Z 0 -z 20  -v circle -c green
n -t * -s 11  -x 688 -y 156 -Z 0 -z 20  -v circle -c green
n -t * -s 12  -x 758 -y 316 -Z 0 -z 20  -v circle -c green
n -t * -s 13  -x 728 -y 428 -Z 0 -z 20  -v circle -c green
n -t * -s 14  -x 695 -y 54 -Z 0 -z 20  -v circle -c green
n -t * -s 15  -x 556 -y 21 -Z 0 -z 20  -v circle -c green
n -t * -s 16  -x 856 -y 188 -Z 0 -z 20  -v circle -c green
V -t * -v 1.0a5 -a 0
W -t * -x 956 -y 600
A -t * -n 1 -p 0 -o 0x7fffffff -c 30 -a 1
A -t * -h 1 -m 1073741823 -s 0
+ -t 0.029350710 -s 0 -d -1 -p message -e 32 -c 2 -a 0 -i 0 -k RTR 
- -t 0.029350710 -s 0 -d -1 -p message -e 32 -c 2 -a 0 -i 0 -k RTR
h -t 0.029350710 -s 0 -d -1 -p message -e 32 -c 2 -a 0 -i 0 -k RTR
+ -t 0.029625710 -s 0 -d -1 -p message -e 90 -c 2 -a 0 -i 0 -k MAC 
- -t 0.029625710 -s 0 -d -1 -p message -e 90 -c 2 -a 0 -i 0 -k MAC
h -t 0.029625710 -s 0 -d -1 -p message -e 90 -c 2 -a 0 -i 0 -k MAC
r -t 0.030346251 -s 1 -d -1 -p message -e 32 -c 2 -a 0 -i 0 -k MAC
r -t 0.030346284 -s 3 -d -1 -p message -e 32 -c 2 -a 0 -i 0 -k MAC
r -t 0.030346464 -s 2 -d -1 -p message -e 32 -c 2 -a 0 -i 0 -k MAC
r -t 0.030371251 -s 1 -d -1 -p message -e 32 -c 2 -a 0 -i 0 -k RTR
r -t 0.030371284 -s 3 -d -1 -p message -e 32 -c 2 -a 0 -i 0 -k RTR
r -t 0.030371464 -s 2 -d -1 -p message -e 32 -c 2 -a 0 -i 0 -k RTR
+ -t 0.089675972 -s 11 -d -1 -p message -e 32 -c 2 -a 0 -i 1 -k RTR 
- -t 0.089675972 -s 11 -d -1 -p message -e 32 -c 2 -a 0 -i 1 -k RTR
h -t 0.089675972 -s 11 -d -1 -p message -e 32 -c 2 -a 0 -i 1 -k RTR
+ -t 0.090190972 -s 11 -d -1 -p message -e 90 -c 2 -a 0 -i 1 -k MAC 
- -t 0.090190972 -s 11 -d -1 -p message -e 90 -c 2 -a 0 -i 1 -k MAC
h -t 0.090190972 -s 11 -d -1 -p message -e 90 -c 2 -a 0 -i 1 -k MAC
r -t 0.090911313 -s 14 -d -1 -p message -e 32 -c 2 -a 0 -i 1 -k MAC
r -t 0.090911478 -s 9 -d -1 -p message -e 32 -c 2 -a 0 -i 1 -k MAC
r -t 0.090911496 -s 8 -d -1 -p message -e 32 -c 2 -a 0 -i 1 -k MAC
r -t 0.090911542 -s 16 -d -1 -p message -e 32 -c 2 -a 0 -i 1 -k MAC
r -t 0.090911554 -s 12 -d -1 -p message -e 32 -c 2 -a 0 -i 1 -k MAC
r -t 0.090911602 -s 15 -d -1 -p message -e 32 -c 2 -a 0 -i 1 -k MAC
r -t 0.090911693 -s 6 -d -1 -p message -e 32 -c 2 -a 0 -i 1 -k MAC
r -t 0.090936313 -s 14 -d -1 -p message -e 32 -c 2 -a 0 -i 1 -k RTR
r -t 0.090936478 -s 9 -d -1 -p message -e 32 -c 2 -a 0 -i 1 -k RTR
r -t 0.090936496 -s 8 -d -1 -p message -e 32 -c 2 -a 0 -i 1 -k RTR
r -t 0.090936542 -s 16 -d -1 -p message -e 32 -c 2 -a 0 -i 1 -k RTR
r -t 0.090936554 -s 12 -d -1 -p message -e 32 -c 2 -a 0 -i 1 -k RTR
r -t 0.090936602 -s 15 -d -1 -p message -e 32 -c 2 -a 0 -i 1 -k RTR
r -t 0.090936693 -s 6 -d -1 -p message -e 32 -c 2 -a 0 -i 1 -k RTR
+ -t 0.184866015 -s 1 -d -1 -p message -e 32 -c 2 -a 0 -i 2 -k RTR 
- -t 0.184866015 -s 1 -d -1 -p message -e 32 -c 2 -a 0 -i 2 -k RTR
h -t 0.184866015 -s 1 -d -1 -p message -e 32 -c 2 -a 0 -i 2 -k RTR
+ -t 0.185481015 -s 1 -d -1 -p message -e 90 -c 2 -a 0 -i 2 -k MAC 
- -t 0.185481015 -s 1 -d -1 -p message -e 90 -c 2 -a 0 -i 2 -k MAC
h -t 0.185481015 -s 1 -d -1 -p message -e 90 -c 2 -a 0 -i 2 -k MAC
r -t 0.186201499 -s 2 -d -1 -p message -e 32 -c 2 -a 0 -i 2 -k MAC
r -t 0.186201557 -s 0 -d -1 -p message -e 32 -c 2 -a 0 -i 2 -k MAC
r -t 0.186201694 -s 7 -d -1 -p message -e 32 -c 2 -a 0 -i 2 -k MAC
r -t 0.186201748 -s 6 -d -1 -p message -e 32 -c 2 -a 0 -i 2 -k MAC
r -t 0.186201751 -s 3 -d -1 -p message -e 32 -c 2 -a 0 -i 2 -k MAC
r -t 0.186226499 -s 2 -d -1 -p message -e 32 -c 2 -a 0 -i 2 -k RTR
r -t 0.186226557 -s 0 -d -1 -p message -e 32 -c 2 -a 0 -i 2 -k RTR
r -t 0.186226694 -s 7 -d -1 -p message -e 32 -c 2 -a 0 -i 2 -k RTR
r -t 0.186226748 -s 6 -d -1 -p message -e 32 -c 2 -a 0 -i 2 -k RTR
r -t 0.186226751 -s 3 -d -1 -p message -e 32 -c 2 -a 0 -i 2 -k RTR
+ -t 0.236127563 -s 13 -d -1 -p message -e 32 -c 2 -a 0 -i 3 -k RTR 
- -t 0.236127563 -s 13 -d -1 -p message -e 32 -c 2 -a 0 -i 3 -k RTR
h -t 0.236127563 -s 13 -d -1 -p message -e 32 -c 2 -a 0 -i 3 -k RTR
+ -t 0.236562563 -s 13 -d -1 -p message -e 90 -c 2 -a 0 -i 3 -k MAC 
- -t 0.236562563 -s 13 -d -1 -p message -e 90 -c 2 -a 0 -i 3 -k MAC
h -t 0.236562563 -s 13 -d -1 -p message -e 90 -c 2 -a 0 -i 3 -k MAC
r -t 0.237282949 -s 12 -d -1 -p message -e 32 -c 2 -a 0 -i 3 -k MAC
r -t 0.237283110 -s 7 -d -1 -p message -e 32 -c 2 -a 0 -i 3 -k MAC
r -t 0.237283165 -s 8 -d -1 -p message -e 32 -c 2 -a 0 -i 3 -k MAC
r -t 0.237307949 -s 12 -d -1 -p message -e 32 -c 2 -a 0 -i 3 -k RTR
r -t 0.237308110 -s 7 -d -1 -p message -e 32 -c 2 -a 0 -i 3 -k RTR
r -t 0.237308165 -s 8 -d -1 -p message -e 32 -c 2 -a 0 -i 3 -k RTR
+ -t 0.332346004 -s 10 -d -1 -p message -e 32 -c 2 -a 0 -i 4 -k RTR 
- -t 0.332346004 -s 10 -d -1 -p message -e 32 -c 2 -a 0 -i 4 -k RTR
h -t 0.332346004 -s 10 -d -1 -p message -e 32 -c 2 -a 0 -i 4 -k RTR
+ -t 0.332621004 -s 10 -d -1 -p message -e 90 -c 2 -a 0 -i 4 -k MAC 
- -t 0.332621004 -s 10 -d -1 -p message -e 90 -c 2 -a 0 -i 4 -k MAC
h -t 0.332621004 -s 10 -d -1 -p message -e 90 -c 2 -a 0 -i 4 -k MAC
r -t 0.333341354 -s 5 -d -1 -p message -e 32 -c 2 -a 0 -i 4 -k MAC
r -t 0.333341531 -s 4 -d -1 -p message -e 32 -c 2 -a 0 -i 4 -k MAC
r -t 0.333341628 -s 15 -d -1 -p message -e 32 -c 2 -a 0 -i 4 -k MAC
r -t 0.333341628 -s 9 -d -1 -p message -e 32 -c 2 -a 0 -i 4 -k MAC
r -t 0.333341824 -s 2 -d -1 -p message -e 32 -c 2 -a 0 -i 4 -k MAC
r -t 0.333366354 -s 5 -d -1 -p message -e 32 -c 2 -a 0 -i 4 -k RTR
r -t 0.333366531 -s 4 -d -1 -p message -e 32 -c 2 -a 0 -i 4 -k RTR
r -t 0.333366628 -s 15 -d -1 -p message -e 32 -c 2 -a 0 -i 4 -k RTR
r -t 0.333366628 -s 9 -d -1 -p message -e 32 -c 2 -a 0 -i 4 -k RTR
r -t 0.333366824 -s 2 -d -1 -p message -e 32 -c 2 -a 0 -i 4 -k RTR
+ -t 0.358484943 -s 16 -d -1 -p message -e 32 -c 2 -a 0 -i 5 -k RTR 
- -t 0.358484943 -s 16 -d -1 -p message -e 32 -c 2 -a 0 -i 5 -k RTR
h -t 0.358484943 -s 16 -d -1 -p message -e 32 -c 2 -a 0 -i 5 -k RTR
+ -t 0.358759943 -s 16 -d -1 -p message -e 90 -c 2 -a 0 -i 5 -k MAC 
- -t 0.358759943 -s 16 -d -1 -p message -e 90 -c 2 -a 0 -i 5 -k MAC
h -t 0.358759943 -s 16 -d -1 -p message -e 90 -c 2 -a 0 -i 5 -k MAC
r -t 0.359480480 -s 12 -d -1 -p message -e 32 -c 2 -a 0 -i 5 -k MAC
r -t 0.359480513 -s 11 -d -1 -p message -e 32 -c 2 -a 0 -i 5 -k MAC
r -t 0.359480641 -s 14 -d -1 -p message -e 32 -c 2 -a 0 -i 5 -k MAC
r -t 0.359505480 -s 12 -d -1 -p message -e 32 -c 2 -a 0 -i 5 -k RTR
r -t 0.359505513 -s 11 -d -1 -p message -e 32 -c 2 -a 0 -i 5 -k RTR
r -t 0.359505641 -s 14 -d -1 -p message -e 32 -c 2 -a 0 -i 5 -k RTR
+ -t 0.469787530 -s 6 -d -1 -p message -e 32 -c 2 -a 0 -i 6 -k RTR 
- -t 0.469787530 -s 6 -d -1 -p message -e 32 -c 2 -a 0 -i 6 -k RTR
h -t 0.469787530 -s 6 -d -1 -p message -e 32 -c 2 -a 0 -i 6 -k RTR
+ -t 0.470202530 -s 6 -d -1 -p message -e 90 -c 2 -a 0 -i 6 -k MAC 
- -t 0.470202530 -s 6 -d -1 -p message -e 90 -c 2 -a 0 -i 6 -k MAC
h -t 0.470202530 -s 6 -d -1 -p message -e 90 -c 2 -a 0 -i 6 -k MAC
r -t 0.470922911 -s 8 -d -1 -p message -e 32 -c 2 -a 0 -i 6 -k MAC
r -t 0.470922992 -s 2 -d -1 -p message -e 32 -c 2 -a 0 -i 6 -k MAC
r -t 0.470923037 -s 9 -d -1 -p message -e 32 -c 2 -a 0 -i 6 -k MAC
r -t 0.470923044 -s 5 -d -1 -p message -e 32 -c 2 -a 0 -i 6 -k MAC
r -t 0.470923096 -s 7 -d -1 -p message -e 32 -c 2 -a 0 -i 6 -k MAC
r -t 0.470923251 -s 11 -d -1 -p message -e 32 -c 2 -a 0 -i 6 -k MAC
r -t 0.470923262 -s 1 -d -1 -p message -e 32 -c 2 -a 0 -i 6 -k MAC
r -t 0.470923352 -s 15 -d -1 -p message -e 32 -c 2 -a 0 -i 6 -k MAC
r -t 0.470947911 -s 8 -d -1 -p message -e 32 -c 2 -a 0 -i 6 -k RTR
r -t 0.470947992 -s 2 -d -1 -p message -e 32 -c 2 -a 0 -i 6 -k RTR
r -t 0.470948037 -s 9 -d -1 -p message -e 32 -c 2 -a 0 -i 6 -k RTR
r -t 0.470948044 -s 5 -d -1 -p message -e 32 -c 2 -a 0 -i 6 -k RTR
r -t 0.470948096 -s 7 -d -1 -p message -e 32 -c 2 -a 0 -i 6 -k RTR
r -t 0.470948251 -s 11 -d -1 -p message -e 32 -c 2 -a 0 -i 6 -k RTR
r -t 0.470948262 -s 1 -d -1 -p message -e 32 -c 2 -a 0 -i 6 -k RTR
r -t 0.470948352 -s 15 -d -1 -p message -e 32 -c 2 -a 0 -i 6 -k RTR
+ -t 0.619389151 -s 8 -d -1 -p message -e 32 -c 2 -a 0 -i 7 -k RTR 
- -t 0.619389151 -s 8 -d -1 -p message -e 32 -c 2 -a 0 -i 7 -k RTR
h -t 0.619389151 -s 8 -d -1 -p message -e 32 -c 2 -a 0 -i 7 -k RTR
+ -t 0.619744151 -s 8 -d -1 -p message -e 90 -c 2 -a 0 -i 7 -k MAC 
- -t 0.619744151 -s 8 -d -1 -p message -e 90 -c 2 -a 0 -i 7 -k MAC
h -t 0.619744151 -s 8 -d -1 -p message -e 90 -c 2 -a 0 -i 7 -k MAC
r -t 0.620464532 -s 6 -d -1 -p message -e 32 -c 2 -a 0 -i 7 -k MAC
r -t 0.620464597 -s 7 -d -1 -p message -e 32 -c 2 -a 0 -i 7 -k MAC
r -t 0.620464654 -s 12 -d -1 -p message -e 32 -c 2 -a 0 -i 7 -k MAC
r -t 0.620464675 -s 11 -d -1 -p message -e 32 -c 2 -a 0 -i 7 -k MAC
r -t 0.620464753 -s 13 -d -1 -p message -e 32 -c 2 -a 0 -i 7 -k MAC
r -t 0.620464781 -s 9 -d -1 -p message -e 32 -c 2 -a 0 -i 7 -k MAC
r -t 0.620464971 -s 2 -d -1 -p message -e 32 -c 2 -a 0 -i 7 -k MAC
r -t 0.620489532 -s 6 -d -1 -p message -e 32 -c 2 -a 0 -i 7 -k RTR
r -t 0.620489597 -s 7 -d -1 -p message -e 32 -c 2 -a 0 -i 7 -k RTR
r -t 0.620489654 -s 12 -d -1 -p message -e 32 -c 2 -a 0 -i 7 -k RTR
r -t 0.620489675 -s 11 -d -1 -p message -e 32 -c 2 -a 0 -i 7 -k RTR
r -t 0.620489753 -s 13 -d -1 -p message -e 32 -c 2 -a 0 -i 7 -k RTR
r -t 0.620489781 -s 9 -d -1 -p message -e 32 -c 2 -a 0 -i 7 -k RTR
r -t 0.620489971 -s 2 -d -1 -p message -e 32 -c 2 -a 0 -i 7 -k RTR
+ -t 0.631371763 -s 4 -d -1 -p message -e 32 -c 2 -a 0 -i 8 -k RTR 
- -t 0.631371763 -s 4 -d -1 -p message -e 32 -c 2 -a 0 -i 8 -k RTR
h -t 0.631371763 -s 4 -d -1 -p message -e 32 -c 2 -a 0 -i 8 -k RTR
+ -t 0.631766763 -s 4 -d -1 -p message -e 90 -c 2 -a 0 -i 8 -k MAC 
- -t 0.631766763 -s 4 -d -1 -p message -e 90 -c 2 -a 0 -i 8 -k MAC
h -t 0.631766763 -s 4 -d -1 -p message -e 90 -c 2 -a 0 -i 8 -k MAC
r -t 0.632487219 -s 3 -d -1 -p message -e 32 -c 2 -a 0 -i 8 -k MAC
r -t 0.632487283 -s 5 -d -1 -p message -e 32 -c 2 -a 0 -i 8 -k MAC
r -t 0.632487290 -s 10 -d -1 -p message -e 32 -c 2 -a 0 -i 8 -k MAC
r -t 0.632487392 -s 2 -d -1 -p message -e 32 -c 2 -a 0 -i 8 -k MAC
r -t 0.632512219 -s 3 -d -1 -p message -e 32 -c 2 -a 0 -i 8 -k RTR
r -t 0.632512283 -s 5 -d -1 -p message -e 32 -c 2 -a 0 -i 8 -k RTR
r -t 0.632512290 -s 10 -d -1 -p message -e 32 -c 2 -a 0 -i 8 -k RTR
r -t 0.632512392 -s 2 -d -1 -p message -e 32 -c 2 -a 0 -i 8 -k RTR
+ -t 0.851570345 -s 15 -d -1 -p message -e 32 -c 2 -a 0 -i 9 -k RTR 
- -t 0.851570345 -s 15 -d -1 -p message -e 32 -c 2 -a 0 -i 9 -k RTR
h -t 0.851570345 -s 15 -d -1 -p message -e 32 -c 2 -a 0 -i 9 -k RTR
+ -t 0.851945345 -s 15 -d -1 -p message -e 90 -c 2 -a 0 -i 9 -k MAC 
- -t 0.851945345 -s 15 -d -1 -p message -e 90 -c 2 -a 0 -i 9 -k MAC
h -t 0.851945345 -s 15 -d -1 -p message -e 90 -c 2 -a 0 -i 9 -k MAC
r -t 0.852665662 -s 9 -d -1 -p message -e 32 -c 2 -a 0 -i 9 -k MAC
r -t 0.852665822 -s 14 -d -1 -p message -e 32 -c 2 -a 0 -i 9 -k MAC
r -t 0.852665969 -s 10 -d -1 -p message -e 32 -c 2 -a 0 -i 9 -k MAC
r -t 0.852665975 -s 11 -d -1 -p message -e 32 -c 2 -a 0 -i 9 -k MAC
r -t 0.852665996 -s 5 -d -1 -p message -e 32 -c 2 -a 0 -i 9 -k MAC
r -t 0.852666168 -s 6 -d -1 -p message -e 32 -c 2 -a 0 -i 9 -k MAC
r -t 0.852690662 -s 9 -d -1 -p message -e 32 -c 2 -a 0 -i 9 -k RTR
r -t 0.852690822 -s 14 -d -1 -p message -e 32 -c 2 -a 0 -i 9 -k RTR
r -t 0.852690969 -s 10 -d -1 -p message -e 32 -c 2 -a 0 -i 9 -k RTR
r -t 0.852690975 -s 11 -d -1 -p message -e 32 -c 2 -a 0 -i 9 -k RTR
r -t 0.852690996 -s 5 -d -1 -p message -e 32 -c 2 -a 0 -i 9 -k RTR
r -t 0.852691168 -s 6 -d -1 -p message -e 32 -c 2 -a 0 -i 9 -k RTR
+ -t 0.890196635 -s 2 -d -1 -p message -e 32 -c 2 -a 0 -i 10 -k RTR 
- -t 0.890196635 -s 2 -d -1 -p message -e 32 -c 2 -a 0 -i 10 -k RTR
h -t 0.890196635 -s 2 -d -1 -p message -e 32 -c 2 -a 0 -i 10 -k RTR
+ -t 0.890551635 -s 2 -d -1 -p message -e 90 -c 2 -a 0 -i 10 -k MAC 
- -t 0.890551635 -s 2 -d -1 -p message -e 90 -c 2 -a 0 -i 10 -k MAC
h -t 0.890551635 -s 2 -d -1 -p message -e 90 -c 2 -a 0 -i 10 -k MAC
r -t 0.891272097 -s 6 -d -1 -p message -e 32 -c 2 -a 0 -i 10 -k MAC
r -t 0.891272119 -s 1 -d -1 -p message -e 32 -c 2 -a 0 -i 10 -k MAC
r -t 0.891272139 -s 5 -d -1 -p message -e 32 -c 2 -a 0 -i 10 -k MAC
r -t 0.891272148 -s 3 -d -1 -p message -e 32 -c 2 -a 0 -i 10 -k MAC
r -t 0.891272264 -s 4 -d -1 -p message -e 32 -c 2 -a 0 -i 10 -k MAC
r -t 0.891272390 -s 0 -d -1 -p message -e 32 -c 2 -a 0 -i 10 -k MAC
r -t 0.891272435 -s 7 -d -1 -p message -e 32 -c 2 -a 0 -i 10 -k MAC
r -t 0.891272455 -s 8 -d -1 -p message -e 32 -c 2 -a 0 -i 10 -k MAC
r -t 0.891272455 -s 10 -d -1 -p message -e 32 -c 2 -a 0 -i 10 -k MAC
r -t 0.891272463 -s 9 -d -1 -p message -e 32 -c 2 -a 0 -i 10 -k MAC
r -t 0.891297097 -s 6 -d -1 -p message -e 32 -c 2 -a 0 -i 10 -k RTR
r -t 0.891297119 -s 1 -d -1 -p message -e 32 -c 2 -a 0 -i 10 -k RTR
r -t 0.891297139 -s 5 -d -1 -p message -e 32 -c 2 -a 0 -i 10 -k RTR
r -t 0.891297148 -s 3 -d -1 -p message -e 32 -c 2 -a 0 -i 10 -k RTR
r -t 0.891297264 -s 4 -d -1 -p message -e 32 -c 2 -a 0 -i 10 -k RTR
r -t 0.891297390 -s 0 -d -1 -p message -e 32 -c 2 -a 0 -i 10 -k RTR
r -t 0.891297435 -s 7 -d -1 -p message -e 32 -c 2 -a 0 -i 10 -k RTR
r -t 0.891297455 -s 8 -d -1 -p message -e 32 -c 2 -a 0 -i 10 -k RTR
r -t 0.891297455 -s 10 -d -1 -p message -e 32 -c 2 -a 0 -i 10 -k RTR
r -t 0.891297463 -s 9 -d -1 -p message -e 32 -c 2 -a 0 -i 10 -k RTR
n -t 1.000000 -s 2 -x 363.000000 -y 287.000000 -U 9.955281 -V 0.944662 -T 13.761541
+ -t 1.000000000 -s 3 -d -1 -p tcp -e 40 -c 2 -a 0 -i 11 -k AGT 
- -t 1.000000000 -s 3 -d -1 -p tcp -e 40 -c 2 -a 0 -i 11 -k AGT
h -t 1.000000000 -s 3 -d -1 -p tcp -e 40 -c 2 -a 0 -i 11 -k AGT
+ -t 1.284679659 -s 7 -d -1 -p message -e 32 -c 2 -a 0 -i 12 -k RTR 
- -t 1.284679659 -s 7 -d -1 -p message -e 32 -c 2 -a 0 -i 12 -k RTR
h -t 1.284679659 -s 7 -d -1 -p message -e 32 -c 2 -a 0 -i 12 -k RTR
+ -t 1.284794659 -s 7 -d -1 -p message -e 90 -c 2 -a 0 -i 12 -k MAC 
- -t 1.284794659 -s 7 -d -1 -p message -e 90 -c 2 -a 0 -i 12 -k MAC
h -t 1.284794659 -s 7 -d -1 -p message -e 90 -c 2 -a 0 -i 12 -k MAC
r -t 1.285515105 -s 8 -d -1 -p message -e 32 -c 2 -a 0 -i 12 -k MAC
r -t 1.285515207 -s 13 -d -1 -p message -e 32 -c 2 -a 0 -i 12 -k MAC
r -t 1.285515226 -s 6 -d -1 -p message -e 32 -c 2 -a 0 -i 12 -k MAC
r -t 1.285515337 -s 1 -d -1 -p message -e 32 -c 2 -a 0 -i 12 -k MAC
r -t 1.285515390 -s 12 -d -1 -p message -e 32 -c 2 -a 0 -i 12 -k MAC
r -t 1.285515450 -s 2 -d -1 -p message -e 32 -c 2 -a 0 -i 12 -k MAC
r -t 1.285540105 -s 8 -d -1 -p message -e 32 -c 2 -a 0 -i 12 -k RTR
r -t 1.285540207 -s 13 -d -1 -p message -e 32 -c 2 -a 0 -i 12 -k RTR
r -t 1.285540226 -s 6 -d -1 -p message -e 32 -c 2 -a 0 -i 12 -k RTR
r -t 1.285540337 -s 1 -d -1 -p message -e 32 -c 2 -a 0 -i 12 -k RTR
r -t 1.285540390 -s 12 -d -1 -p message -e 32 -c 2 -a 0 -i 12 -k RTR
r -t 1.285540450 -s 2 -d -1 -p message -e 32 -c 2 -a 0 -i 12 -k RTR
+ -t 1.289895385 -s 12 -d -1 -p message -e 32 -c 2 -a 0 -i 13 -k RTR 
- -t 1.289895385 -s 12 -d -1 -p message -e 32 -c 2 -a 0 -i 13 -k RTR
h -t 1.289895385 -s 12 -d -1 -p message -e 32 -c 2 -a 0 -i 13 -k RTR
+ -t 1.290090385 -s 12 -d -1 -p message -e 90 -c 2 -a 0 -i 13 -k MAC 
- -t 1.290090385 -s 12 -d -1 -p message -e 90 -c 2 -a 0 -i 13 -k MAC
h -t 1.290090385 -s 12 -d -1 -p message -e 90 -c 2 -a 0 -i 13 -k MAC
r -t 1.290810772 -s 13 -d -1 -p message -e 32 -c 2 -a 0 -i 13 -k MAC
r -t 1.290810888 -s 8 -d -1 -p message -e 32 -c 2 -a 0 -i 13 -k MAC
r -t 1.290810923 -s 16 -d -1 -p message -e 32 -c 2 -a 0 -i 13 -k MAC
r -t 1.290810967 -s 11 -d -1 -p message -e 32 -c 2 -a 0 -i 13 -k MAC
r -t 1.290811116 -s 7 -d -1 -p message -e 32 -c 2 -a 0 -i 13 -k MAC
r -t 1.290835772 -s 13 -d -1 -p message -e 32 -c 2 -a 0 -i 13 -k RTR
r -t 1.290835888 -s 8 -d -1 -p message -e 32 -c 2 -a 0 -i 13 -k RTR
r -t 1.290835923 -s 16 -d -1 -p message -e 32 -c 2 -a 0 -i 13 -k RTR
r -t 1.290835967 -s 11 -d -1 -p message -e 32 -c 2 -a 0 -i 13 -k RTR
r -t 1.290836116 -s 7 -d -1 -p message -e 32 -c 2 -a 0 -i 13 -k RTR
+ -t 1.605661818 -s 3 -d -1 -p message -e 32 -c 2 -a 0 -i 14 -k RTR 
- -t 1.605661818 -s 3 -d -1 -p message -e 32 -c 2 -a 0 -i 14 -k RTR
h -t 1.605661818 -s 3 -d -1 -p message -e 32 -c 2 -a 0 -i 14 -k RTR
+ -t 1.605996818 -s 3 -d -1 -p message -e 90 -c 2 -a 0 -i 14 -k MAC 
- -t 1.605996818 -s 3 -d -1 -p message -e 90 -c 2 -a 0 -i 14 -k MAC
h -t 1.605996818 -s 3 -d -1 -p message -e 90 -c 2 -a 0 -i 14 -k MAC
r -t 1.606717274 -s 4 -d -1 -p message -e 32 -c 2 -a 0 -i 14 -k MAC
r -t 1.606717351 -s 2 -d -1 -p message -e 32 -c 2 -a 0 -i 14 -k MAC
r -t 1.606717393 -s 0 -d -1 -p message -e 32 -c 2 -a 0 -i 14 -k MAC
r -t 1.606717554 -s 1 -d -1 -p message -e 32 -c 2 -a 0 -i 14 -k MAC
r -t 1.606717591 -s 5 -d -1 -p message -e 32 -c 2 -a 0 -i 14 -k MAC
r -t 1.606742274 -s 4 -d -1 -p message -e 32 -c 2 -a 0 -i 14 -k RTR
r -t 1.606742351 -s 2 -d -1 -p message -e 32 -c 2 -a 0 -i 14 -k RTR
r -t 1.606742393 -s 0 -d -1 -p message -e 32 -c 2 -a 0 -i 14 -k RTR
r -t 1.606742554 -s 1 -d -1 -p message -e 32 -c 2 -a 0 -i 14 -k RTR
r -t 1.606742591 -s 5 -d -1 -p message -e 32 -c 2 -a 0 -i 14 -k RTR
+ -t 1.641980579 -s 5 -d -1 -p message -e 32 -c 2 -a 0 -i 15 -k RTR 
- -t 1.641980579 -s 5 -d -1 -p message -e 32 -c 2 -a 0 -i 15 -k RTR
h -t 1.641980579 -s 5 -d -1 -p message -e 32 -c 2 -a 0 -i 15 -k RTR
+ -t 1.642655579 -s 5 -d -1 -p message -e 90 -c 2 -a 0 -i 15 -k MAC 
- -t 1.642655579 -s 5 -d -1 -p message -e 90 -c 2 -a 0 -i 15 -k MAC
h -t 1.642655579 -s 5 -d -1 -p message -e 90 -c 2 -a 0 -i 15 -k MAC
r -t 1.643375929 -s 10 -d -1 -p message -e 32 -c 2 -a 0 -i 15 -k MAC
r -t 1.643376054 -s 9 -d -1 -p message -e 32 -c 2 -a 0 -i 15 -k MAC
r -t 1.643376080 -s 2 -d -1 -p message -e 32 -c 2 -a 0 -i 15 -k MAC
r -t 1.643376094 -s 6 -d -1 -p message -e 32 -c 2 -a 0 -i 15 -k MAC
r -t 1.643376099 -s 4 -d -1 -p message -e 32 -c 2 -a 0 -i 15 -k MAC
r -t 1.643376230 -s 15 -d -1 -p message -e 32 -c 2 -a 0 -i 15 -k MAC
r -t 1.643376352 -s 3 -d -1 -p message -e 32 -c 2 -a 0 -i 15 -k MAC
r -t 1.643400929 -s 10 -d -1 -p message -e 32 -c 2 -a 0 -i 15 -k RTR
r -t 1.643401054 -s 9 -d -1 -p message -e 32 -c 2 -a 0 -i 15 -k RTR
r -t 1.643401080 -s 2 -d -1 -p message -e 32 -c 2 -a 0 -i 15 -k RTR
r -t 1.643401094 -s 6 -d -1 -p message -e 32 -c 2 -a 0 -i 15 -k RTR
r -t 1.643401099 -s 4 -d -1 -p message -e 32 -c 2 -a 0 -i 15 -k RTR
r -t 1.643401230 -s 15 -d -1 -p message -e 32 -c 2 -a 0 -i 15 -k RTR
r -t 1.643401352 -s 3 -d -1 -p message -e 32 -c 2 -a 0 -i 15 -k RTR
+ -t 1.680005479 -s 9 -d -1 -p message -e 32 -c 2 -a 0 -i 16 -k RTR 
- -t 1.680005479 -s 9 -d -1 -p message -e 32 -c 2 -a 0 -i 16 -k RTR
h -t 1.680005479 -s 9 -d -1 -p message -e 32 -c 2 -a 0 -i 16 -k RTR
+ -t 1.680200479 -s 9 -d -1 -p message -e 90 -c 2 -a 0 -i 16 -k MAC 
- -t 1.680200479 -s 9 -d -1 -p message -e 90 -c 2 -a 0 -i 16 -k MAC
h -t 1.680200479 -s 9 -d -1 -p message -e 90 -c 2 -a 0 -i 16 -k MAC
r -t 1.680920796 -s 15 -d -1 -p message -e 32 -c 2 -a 0 -i 16 -k MAC
r -t 1.680920954 -s 5 -d -1 -p message -e 32 -c 2 -a 0 -i 16 -k MAC
r -t 1.680920985 -s 11 -d -1 -p message -e 32 -c 2 -a 0 -i 16 -k MAC
r -t 1.680920986 -s 6 -d -1 -p message -e 32 -c 2 -a 0 -i 16 -k MAC
r -t 1.680921028 -s 14 -d -1 -p message -e 32 -c 2 -a 0 -i 16 -k MAC
r -t 1.680921103 -s 10 -d -1 -p message -e 32 -c 2 -a 0 -i 16 -k MAC
r -t 1.680921110 -s 8 -d -1 -p message -e 32 -c 2 -a 0 -i 16 -k MAC
r -t 1.680921292 -s 2 -d -1 -p message -e 32 -c 2 -a 0 -i 16 -k MAC
r -t 1.680945796 -s 15 -d -1 -p message -e 32 -c 2 -a 0 -i 16 -k RTR
r -t 1.680945954 -s 5 -d -1 -p message -e 32 -c 2 -a 0 -i 16 -k RTR
r -t 1.680945985 -s 11 -d -1 -p message -e 32 -c 2 -a 0 -i 16 -k RTR
r -t 1.680945986 -s 6 -d -1 -p message -e 32 -c 2 -a 0 -i 16 -k RTR
r -t 1.680946028 -s 14 -d -1 -p message -e 32 -c 2 -a 0 -i 16 -k RTR
r -t 1.680946103 -s 10 -d -1 -p message -e 32 -c 2 -a 0 -i 16 -k RTR
r -t 1.680946110 -s 8 -d -1 -p message -e 32 -c 2 -a 0 -i 16 -k RTR
r -t 1.680946292 -s 2 -d -1 -p message -e 32 -c 2 -a 0 -i 16 -k RTR
+ -t 1.727611218 -s 14 -d -1 -p message -e 32 -c 2 -a 0 -i 17 -k RTR 
- -t 1.727611218 -s 14 -d -1 -p message -e 32 -c 2 -a 0 -i 17 -k RTR
h -t 1.727611218 -s 14 -d -1 -p message -e 32 -c 2 -a 0 -i 17 -k RTR
+ -t 1.727986218 -s 14 -d -1 -p message -e 90 -c 2 -a 0 -i 17 -k MAC 
- -t 1.727986218 -s 14 -d -1 -p message -e 90 -c 2 -a 0 -i 17 -k MAC
h -t 1.727986218 -s 14 -d -1 -p message -e 90 -c 2 -a 0 -i 17 -k MAC
r -t 1.728706559 -s 11 -d -1 -p message -e 32 -c 2 -a 0 -i 17 -k MAC
r -t 1.728706694 -s 15 -d -1 -p message -e 32 -c 2 -a 0 -i 17 -k MAC
r -t 1.728706767 -s 9 -d -1 -p message -e 32 -c 2 -a 0 -i 17 -k MAC
r -t 1.728706916 -s 16 -d -1 -p message -e 32 -c 2 -a 0 -i 17 -k MAC
r -t 1.728731559 -s 11 -d -1 -p message -e 32 -c 2 -a 0 -i 17 -k RTR
r -t 1.728731694 -s 15 -d -1 -p message -e 32 -c 2 -a 0 -i 17 -k RTR
r -t 1.728731767 -s 9 -d -1 -p message -e 32 -c 2 -a 0 -i 17 -k RTR
r -t 1.728731916 -s 16 -d -1 -p message -e 32 -c 2 -a 0 -i 17 -k RTR
n -t 2.000000 -s 9 -x 542.000000 -y 115.000000 -U -21.631957 -V 20.786015 -T 8.274794
+ -t 2.000000000 -s 4 -d -1 -p tcp -e 40 -c 2 -a 0 -i 18 -k AGT 
- -t 2.000000000 -s 4 -d -1 -p tcp -e 40 -c 2 -a 0 -i 18 -k AGT
h -t 2.000000000 -s 4 -d -1 -p tcp -e 40 -c 2 -a 0 -i 18 -k AGT
+ -t 4.000000000 -s 3 -d -1 -p tcp -e 40 -c 2 -a 0 -i 19 -k AGT 
- -t 4.000000000 -s 3 -d -1 -p tcp -e 40 -c 2 -a 0 -i 19 -k AGT
h -t 4.000000000 -s 3 -d -1 -p tcp -e 40 -c 2 -a 0 -i 19 -k AGT
+ -t 5.000000000 -s 4 -d -1 -p tcp -e 40 -c 2 -a 0 -i 20 -k AGT 
- -t 5.000000000 -s 4 -d -1 -p tcp -e 40 -c 2 -a 0 -i 20 -k AGT
h -t 5.000000000 -s 4 -d -1 -p tcp -e 40 -c 2 -a 0 -i 20 -k AGT
n -t 8.000000 -s 9 -x 412.208255 -y 239.716090 -U 20.896654 -V -13.723332 -T 13.532872
n -t 10.000000 -s 2 -x 452.597527 -y 295.501955 -U 17.541984 -V 24.336779 -T 8.402839
+ -t 10.000000000 -s 3 -d -1 -p tcp -e 40 -c 2 -a 0 -i 21 -k AGT 
- -t 10.000000000 -s 3 -d -1 -p tcp -e 40 -c 2 -a 0 -i 21 -k AGT
h -t 10.000000000 -s 3 -d -1 -p tcp -e 40 -c 2 -a 0 -i 21 -k AGT
+ -t 11.000000000 -s 4 -d -1 -p tcp -e 40 -c 2 -a 0 -i 22 -k AGT 
- -t 11.000000000 -s 4 -d -1 -p tcp -e 40 -c 2 -a 0 -i 22 -k AGT
h -t 11.000000000 -s 4 -d -1 -p tcp -e 40 -c 2 -a 0 -i 22 -k AGT
+ -t 11.763798547 -s 6 -d -1 -p message -e 32 -c 2 -a 0 -i 23 -k RTR 
- -t 11.763798547 -s 6 -d -1 -p message -e 32 -c 2 -a 0 -i 23 -k RTR
h -t 11.763798547 -s 6 -d -1 -p message -e 32 -c 2 -a 0 -i 23 -k RTR
+ -t 11.763913547 -s 6 -d -1 -p message -e 90 -c 2 -a 0 -i 23 -k MAC 
- -t 11.763913547 -s 6 -d -1 -p message -e 90 -c 2 -a 0 -i 23 -k MAC
h -t 11.763913547 -s 6 -d -1 -p message -e 90 -c 2 -a 0 -i 23 -k MAC
r -t 11.764633792 -s 9 -d -1 -p message -e 32 -c 2 -a 0 -i 23 -k MAC
r -t 11.764633810 -s 2 -d -1 -p message -e 32 -c 2 -a 0 -i 23 -k MAC
r -t 11.764633928 -s 8 -d -1 -p message -e 32 -c 2 -a 0 -i 23 -k MAC
r -t 11.764634062 -s 5 -d -1 -p message -e 32 -c 2 -a 0 -i 23 -k MAC
r -t 11.764634114 -s 7 -d -1 -p message -e 32 -c 2 -a 0 -i 23 -k MAC
r -t 11.764634268 -s 11 -d -1 -p message -e 32 -c 2 -a 0 -i 23 -k MAC
r -t 11.764634280 -s 1 -d -1 -p message -e 32 -c 2 -a 0 -i 23 -k MAC
r -t 11.764634370 -s 15 -d -1 -p message -e 32 -c 2 -a 0 -i 23 -k MAC
r -t 11.764658792 -s 9 -d -1 -p message -e 32 -c 2 -a 0 -i 23 -k RTR
r -t 11.764658810 -s 2 -d -1 -p message -e 32 -c 2 -a 0 -i 23 -k RTR
r -t 11.764658928 -s 8 -d -1 -p message -e 32 -c 2 -a 0 -i 23 -k RTR
r -t 11.764659062 -s 5 -d -1 -p message -e 32 -c 2 -a 0 -i 23 -k RTR
r -t 11.764659114 -s 7 -d -1 -p message -e 32 -c 2 -a 0 -i 23 -k RTR
r -t 11.764659268 -s 11 -d -1 -p message -e 32 -c 2 -a 0 -i 23 -k RTR
r -t 11.764659280 -s 1 -d -1 -p message -e 32 -c 2 -a 0 -i 23 -k RTR
r -t 11.764659370 -s 15 -d -1 -p message -e 32 -c 2 -a 0 -i 23 -k RTR
+ -t 11.988619382 -s 10 -d -1 -p message -e 32 -c 2 -a 0 -i 24 -k RTR 
- -t 11.988619382 -s 10 -d -1 -p message -e 32 -c 2 -a 0 -i 24 -k RTR
h -t 11.988619382 -s 10 -d -1 -p message -e 32 -c 2 -a 0 -i 24 -k RTR
+ -t 11.988854382 -s 10 -d -1 -p message -e 90 -c 2 -a 0 -i 24 -k MAC 
- -t 11.988854382 -s 10 -d -1 -p message -e 90 -c 2 -a 0 -i 24 -k MAC
h -t 11.988854382 -s 10 -d -1 -p message -e 90 -c 2 -a 0 -i 24 -k MAC
r -t 11.989574732 -s 5 -d -1 -p message -e 32 -c 2 -a 0 -i 24 -k MAC
r -t 11.989574909 -s 4 -d -1 -p message -e 32 -c 2 -a 0 -i 24 -k MAC
r -t 11.989575005 -s 15 -d -1 -p message -e 32 -c 2 -a 0 -i 24 -k MAC
r -t 11.989575019 -s 9 -d -1 -p message -e 32 -c 2 -a 0 -i 24 -k MAC
r -t 11.989599732 -s 5 -d -1 -p message -e 32 -c 2 -a 0 -i 24 -k RTR
r -t 11.989599909 -s 4 -d -1 -p message -e 32 -c 2 -a 0 -i 24 -k RTR
r -t 11.989600005 -s 15 -d -1 -p message -e 32 -c 2 -a 0 -i 24 -k RTR
r -t 11.989600019 -s 9 -d -1 -p message -e 32 -c 2 -a 0 -i 24 -k RTR
+ -t 12.030699175 -s 1 -d -1 -p message -e 32 -c 2 -a 0 -i 25 -k RTR 
- -t 12.030699175 -s 1 -d -1 -p message -e 32 -c 2 -a 0 -i 25 -k RTR
h -t 12.030699175 -s 1 -d -1 -p message -e 32 -c 2 -a 0 -i 25 -k RTR
+ -t 12.030994175 -s 1 -d -1 -p message -e 90 -c 2 -a 0 -i 25 -k MAC 
- -t 12.030994175 -s 1 -d -1 -p message -e 90 -c 2 -a 0 -i 25 -k MAC
h -t 12.030994175 -s 1 -d -1 -p message -e 90 -c 2 -a 0 -i 25 -k MAC
r -t 12.031714689 -s 2 -d -1 -p message -e 32 -c 2 -a 0 -i 25 -k MAC
r -t 12.031714716 -s 0 -d -1 -p message -e 32 -c 2 -a 0 -i 25 -k MAC
r -t 12.031714853 -s 7 -d -1 -p message -e 32 -c 2 -a 0 -i 25 -k MAC
r -t 12.031714907 -s 6 -d -1 -p message -e 32 -c 2 -a 0 -i 25 -k MAC
r -t 12.031714910 -s 3 -d -1 -p message -e 32 -c 2 -a 0 -i 25 -k MAC
r -t 12.031739689 -s 2 -d -1 -p message -e 32 -c 2 -a 0 -i 25 -k RTR
r -t 12.031739716 -s 0 -d -1 -p message -e 32 -c 2 -a 0 -i 25 -k RTR
r -t 12.031739853 -s 7 -d -1 -p message -e 32 -c 2 -a 0 -i 25 -k RTR
r -t 12.031739907 -s 6 -d -1 -p message -e 32 -c 2 -a 0 -i 25 -k RTR
r -t 12.031739910 -s 3 -d -1 -p message -e 32 -c 2 -a 0 -i 25 -k RTR
+ -t 12.033421354 -s 2 -d -1 -p message -e 32 -c 2 -a 0 -i 27 -k RTR 
- -t 12.033421354 -s 2 -d -1 -p message -e 32 -c 2 -a 0 -i 27 -k RTR
h -t 12.033421354 -s 2 -d -1 -p message -e 32 -c 2 -a 0 -i 27 -k RTR
+ -t 12.033636354 -s 2 -d -1 -p message -e 90 -c 2 -a 0 -i 27 -k MAC 
- -t 12.033636354 -s 2 -d -1 -p message -e 90 -c 2 -a 0 -i 27 -k MAC
h -t 12.033636354 -s 2 -d -1 -p message -e 90 -c 2 -a 0 -i 27 -k MAC
+ -t 12.034023758 -s 3 -d -1 -p message -e 32 -c 2 -a 0 -i 26 -k RTR 
- -t 12.034023758 -s 3 -d -1 -p message -e 32 -c 2 -a 0 -i 26 -k RTR
h -t 12.034023758 -s 3 -d -1 -p message -e 32 -c 2 -a 0 -i 26 -k RTR
r -t 12.034356636 -s 6 -d -1 -p message -e 32 -c 2 -a 0 -i 27 -k MAC
r -t 12.034356705 -s 7 -d -1 -p message -e 32 -c 2 -a 0 -i 27 -k MAC
r -t 12.034356794 -s 8 -d -1 -p message -e 32 -c 2 -a 0 -i 27 -k MAC
r -t 12.034356868 -s 1 -d -1 -p message -e 32 -c 2 -a 0 -i 27 -k MAC
r -t 12.034356890 -s 9 -d -1 -p message -e 32 -c 2 -a 0 -i 27 -k MAC
r -t 12.034357092 -s 5 -d -1 -p message -e 32 -c 2 -a 0 -i 27 -k MAC
r -t 12.034381636 -s 6 -d -1 -p message -e 32 -c 2 -a 0 -i 27 -k RTR
r -t 12.034381705 -s 7 -d -1 -p message -e 32 -c 2 -a 0 -i 27 -k RTR
r -t 12.034381794 -s 8 -d -1 -p message -e 32 -c 2 -a 0 -i 27 -k RTR
r -t 12.034381868 -s 1 -d -1 -p message -e 32 -c 2 -a 0 -i 27 -k RTR
r -t 12.034381890 -s 9 -d -1 -p message -e 32 -c 2 -a 0 -i 27 -k RTR
r -t 12.034382092 -s 5 -d -1 -p message -e 32 -c 2 -a 0 -i 27 -k RTR
+ -t 12.035131314 -s 3 -d -1 -p message -e 90 -c 2 -a 0 -i 26 -k MAC 
- -t 12.035131314 -s 3 -d -1 -p message -e 90 -c 2 -a 0 -i 26 -k MAC
h -t 12.035131314 -s 3 -d -1 -p message -e 90 -c 2 -a 0 -i 26 -k MAC
r -t 12.035851770 -s 4 -d -1 -p message -e 32 -c 2 -a 0 -i 26 -k MAC
r -t 12.035851888 -s 0 -d -1 -p message -e 32 -c 2 -a 0 -i 26 -k MAC
r -t 12.035852050 -s 1 -d -1 -p message -e 32 -c 2 -a 0 -i 26 -k MAC
r -t 12.035852087 -s 5 -d -1 -p message -e 32 -c 2 -a 0 -i 26 -k MAC
r -t 12.035876770 -s 4 -d -1 -p message -e 32 -c 2 -a 0 -i 26 -k RTR
r -t 12.035876888 -s 0 -d -1 -p message -e 32 -c 2 -a 0 -i 26 -k RTR
r -t 12.035877050 -s 1 -d -1 -p message -e 32 -c 2 -a 0 -i 26 -k RTR
r -t 12.035877087 -s 5 -d -1 -p message -e 32 -c 2 -a 0 -i 26 -k RTR
+ -t 12.091255727 -s 14 -d -1 -p message -e 32 -c 2 -a 0 -i 28 -k RTR 
- -t 12.091255727 -s 14 -d -1 -p message -e 32 -c 2 -a 0 -i 28 -k RTR
h -t 12.091255727 -s 14 -d -1 -p message -e 32 -c 2 -a 0 -i 28 -k RTR
+ -t 12.091330727 -s 14 -d -1 -p message -e 90 -c 2 -a 0 -i 28 -k MAC 
- -t 12.091330727 -s 14 -d -1 -p message -e 90 -c 2 -a 0 -i 28 -k MAC
h -t 12.091330727 -s 14 -d -1 -p message -e 90 -c 2 -a 0 -i 28 -k MAC
r -t 12.092051068 -s 11 -d -1 -p message -e 32 -c 2 -a 0 -i 28 -k MAC
r -t 12.092051204 -s 15 -d -1 -p message -e 32 -c 2 -a 0 -i 28 -k MAC
r -t 12.092051426 -s 16 -d -1 -p message -e 32 -c 2 -a 0 -i 28 -k MAC
r -t 12.092051514 -s 9 -d -1 -p message -e 32 -c 2 -a 0 -i 28 -k MAC
r -t 12.092076068 -s 11 -d -1 -p message -e 32 -c 2 -a 0 -i 28 -k RTR
r -t 12.092076204 -s 15 -d -1 -p message -e 32 -c 2 -a 0 -i 28 -k RTR
r -t 12.092076426 -s 16 -d -1 -p message -e 32 -c 2 -a 0 -i 28 -k RTR
r -t 12.092076514 -s 9 -d -1 -p message -e 32 -c 2 -a 0 -i 28 -k RTR
+ -t 12.095449216 -s 15 -d -1 -p message -e 32 -c 2 -a 0 -i 33 -k RTR 
- -t 12.095449216 -s 15 -d -1 -p message -e 32 -c 2 -a 0 -i 33 -k RTR
h -t 12.095449216 -s 15 -d -1 -p message -e 32 -c 2 -a 0 -i 33 -k RTR
+ -t 12.096044216 -s 15 -d -1 -p message -e 90 -c 2 -a 0 -i 33 -k MAC 
- -t 12.096044216 -s 15 -d -1 -p message -e 90 -c 2 -a 0 -i 33 -k MAC
h -t 12.096044216 -s 15 -d -1 -p message -e 90 -c 2 -a 0 -i 33 -k MAC
+ -t 12.096144023 -s 12 -d -1 -p message -e 32 -c 2 -a 0 -i 32 -k RTR 
- -t 12.096144023 -s 12 -d -1 -p message -e 32 -c 2 -a 0 -i 32 -k RTR