s -t 0.029350710 -Hs 0 -Hd -1 -Ni 0 -Nx 199.00 -Ny 443.00 -Nz 0.00 -Ne 50.000000 -Nl RTR -Nw --- -Ma 0 -Md 0 -Ms 0 -Mt 0 -Is 0.255 -Id -1.255 -It message -Il 32 -If 0 -Ii 0 -Iv 32 
s -t 0.029625710 -Hs 0 -Hd -1 -Ni 0 -Nx 199.00 -Ny 443.00 -Nz 0.00 -Ne 50.000000 -Nl MAC -Nw --- -Ma 0 -Md ffffffff -Ms 0 -Mt 800 -Is 0.255 -Id -1.255 -It message -Il 90 -If 0 -Ii 0 -Iv 32 
N -t 0.029626 -n 1 -e 49.981720
N -t 0.029626 -n 3 -e 49.981720
N -t 0.029626 -n 2 -e 49.981720
N -t 0.029627 -n 4 -e 49.981720
N -t 0.029627 -n 6 -e 49.981720
N -t 0.029627 -n 5 -e 49.981720
N -t 0.029627 -n 7 -e 49.981720
N -t 0.029627 -n 10 -e 49.981720
N -t 0.029627 -n 8 -e 49.981720
N -t 0.029627 -n 9 -e 49.981720
N -t 0.029627 -n 13 -e 49.981720
r -t 0.030346251 -Hs 1 -Hd -1 -Ni 1 -Nx 361.00 -Ny 432.00 -Nz 0.00 -Ne 49.981720 -Nl MAC -Nw --- -Ma 0 -Md ffffffff -Ms 0 -Mt 800 -Is 0.255 -Id -1.255 -It message -Il 32 -If 0 -Ii 0 -Iv 32 
r -t 0.030346284 -Hs 3 -Hd -1 -Ni 3 -Nx 210.00 -Ny 271.00 -Nz 0.00 -Ne 49.981720 -Nl MAC -Nw --- -Ma 0 -Md ffffffff -Ms 0 -Mt 800 -Is 0.255 -Id -1.255 -It message -Il 32 -If 0 -Ii 0 -Iv 32 
r -t 0.030346464 -Hs 2 -Hd -1 -Ni 2 -Nx 363.00 -Ny 287.00 -Nz 0.00 -Ne 49.981720 -Nl MAC -Nw --- -Ma 0 -Md ffffffff -Ms 0 -Mt 800 -Is 0.255 -Id -1.255 -It message -Il 32 -If 0 -Ii 0 -Iv 32 
r -t 0.030371251 -Hs 1 -Hd -1 -Ni 1 -Nx 361.00 -Ny 432.00 -Nz 0.00 -Ne 49.981720 -Nl RTR -Nw --- -Ma 0 -Md ffffffff -Ms 0 -Mt 800 -Is 0.255 -Id -1.255 -It message -Il 32 -If 0 -Ii 0 -Iv 32 
r -t 0.030371284 -Hs 3 -Hd -1 -Ni 3 -Nx 210.00 -Ny 271.00 -Nz 0.00 -Ne 49.981720 -Nl RTR -Nw --- -Ma 0 -Md ffffffff -Ms 0 -Mt 800 -Is 0.255 -Id -1.255 -It message -Il 32 -If 0 -Ii 0 -Iv 32 
r -t 0.030371464 -Hs 2 -Hd -1 -Ni 2 -Nx 363.00 -Ny 287.00 -Nz 0.00 -Ne 49.981720 -Nl RTR -Nw --- -Ma 0 -Md ffffffff -Ms 0 -Mt 800 -Is 0.255 -Id -1.255 -It message -Il 32 -If 0 -Ii 0 -Iv 32 
s -t 0.089675972 -Hs 11 -Hd -1 -Ni 11 -Nx 688.00 -Ny 156.00 -Nz 0.00 -Ne 50.000000 -Nl RTR -Nw --- -Ma 0 -Md 0 -Ms 0 -Mt 0 -Is 11.255 -Id -1.255 -It message -Il 32 -If 0 -Ii 1 -Iv 32 
s -t 0.090190972 -Hs 11 -Hd -1 -Ni 11 -Nx 688.00 -Ny 156.00 -Nz 0.00 -Ne 50.000000 -Nl MAC -Nw --- -Ma 0 -Md ffffffff -Ms b -Mt 800 -Is 11.255 -Id -1.255 -It message -Il 90 -If 0 -Ii 1 -Iv 32 
N -t 0.090191 -n 14 -e 49.945381
N -t 0.090191 -n 9 -e 49.945309
N -t 0.090191 -n 8 -e 49.945309
N -t 0.090192 -n 16 -e 49.945381
N -t 0.090192 -n 12 -e 49.945381
N -t 0.090192 -n 15 -e 49.945381
N -t 0.090192 -n 6 -e 49.945309
N -t 0.090192 -n 13 -e 49.945309
N -t 0.090192 -n 5 -e 49.945309
N -t 0.090192 -n 7 -e 49.945309
N -t 0.090192 -n 10 -e 49.945309
N -t 0.090192 -n 2 -e 49.945309
N -t 0.090192 -n 1 -e 49.945309
N -t 0.090192 -n 4 -e 49.945309
N -t 0.090193 -n 3 -e 49.945308
r -t 0.090911313 -Hs 14 -Hd -1 -Ni 14 -Nx 695.00 -Ny 54.00 -Nz 0.00 -Ne 49.945381 -Nl MAC -Nw --- -Ma 0 -Md ffffffff -Ms b -Mt 800 -Is 11.255 -Id -1.255 -It message -Il 32 -If 0 -Ii 1 -Iv 32 
r -t 0.090911478 -Hs 9 -Hd -1 -Ni 9 -Nx 542.00 -Ny 115.00 -Nz 0.00 -Ne 49.945309 -Nl MAC -Nw --- -Ma 0 -Md ffffffff -Ms b -Mt 800 -Is 11.255 -Id -1.255 -It message -Il 32 -If 0 -Ii 1 -Iv 32 
r -t 0.090911496 -Hs 8 -Hd -1 -Ni 8 -Nx 609.00 -Ny 292.00 -Nz 0.00 -Ne 49.945309 -Nl MAC -Nw --- -Ma 0 -Md ffffffff -Ms b -Mt 800 -Is 11.255 -Id -1.255 -It message -Il 32 -If 0 -Ii 1 -Iv 32 
r -t 0.090911542 -Hs 16 -Hd -1 -Ni 16 -Nx 856.00 -Ny 188.00 -Nz 0.00 -Ne 49.945381 -Nl MAC -Nw --- -Ma 0 -Md ffffffff -Ms b -Mt 800 -Is 11.255 -Id -1.255 -It message -Il 32 -If 0 -Ii 1 -Iv 32 
r -t 0.090911554 -Hs 12 -Hd -1 -Ni 12 -Nx 758.00 -Ny 316.00 -Nz 0.00 -Ne 49.945381 -Nl MAC -Nw --- -Ma 0 -Md ffffffff -Ms b -Mt 800 -Is 11.255 -Id -1.255 -It message -Il 32 -If 0 -Ii 1 -Iv 32 
r -t 0.090911602 -Hs 15 -Hd -1 -Ni 15 -Nx 556.00 -Ny 21.00 -Nz 0.00 -Ne 49.945381 -Nl MAC -Nw --- -Ma 0 -Md ffffffff -Ms b -Mt 800 -Is 11.255 -Id -1.255 -It message -Il 32 -If 0 -Ii 1 -Iv 32 
r -t 0.090911693 -Hs 6 -Hd -1 -Ni 6 -Nx 499.00 -Ny 261.00 -Nz 0.00 -Ne 49.945309 -Nl MAC -Nw --- -Ma 0 -Md ffffffff -Ms b -Mt 800 -Is 11.255 -Id -1.255 -It message -Il 32 -If 0 -Ii 1 -Iv 32 
r -t 0.090936313 -Hs 14 -Hd -1 -Ni 14 -Nx 695.00 -Ny 54.00 -Nz 0.00 -Ne 49.945381 -Nl RTR -Nw --- -Ma 0 -Md ffffffff -Ms b -Mt 800 -Is 11.255 -Id -1.255 -It message -Il 32 -If 0 -Ii 1 -Iv 32 
r -t 0.090936478 -Hs 9 -Hd -1 -Ni 9 -Nx 542.00 -Ny 115.00 -Nz 0.00 -Ne 49.945309 -Nl RTR -Nw --- -Ma 0 -Md ffffffff -Ms b -Mt 800 -Is 11.255 -Id -1.255 -It message -Il 32 -If 0 -Ii 1 -Iv 32 
r -t 0.090936496 -Hs 8 -Hd -1 -Ni 8 -Nx 609.00 -Ny 292.00 -Nz 0.00 -Ne 49.945309 -Nl RTR -Nw --- -Ma 0 -Md ffffffff -Ms b -Mt 800 -Is 11.255 -Id -1.255 -It message -Il 32 -If 0 -Ii 1 -Iv 32 
r -t 0.090936542 -Hs 16 -Hd -1 -Ni 16 -Nx 856.00 -Ny 188.00 -Nz 0.00 -Ne 49.945381 -Nl RTR -Nw --- -Ma 0 -Md ffffffff -Ms b -Mt 800 -Is 11.255 -Id -1.255 -It message -Il 32 -If 0 -Ii 1 -Iv 32 
r -t 0.090936554 -Hs 12 -Hd -1 -Ni 12 -Nx 758.00 -Ny 316.00 -Nz 0.00 -Ne 49.945381 -Nl RTR -Nw --- -Ma 0 -Md ffffffff -Ms b -Mt 800 -Is 11.255 -Id -1.255 -It message -Il 32 -If 0 -Ii 1 -Iv 32 
r -t 0.090936602 -Hs 15 -Hd -1 -Ni 15 -Nx 556.00 -Ny 21.00 -Nz 0.00 -Ne 49.945381 -Nl RTR -Nw --- -Ma 0 -Md ffffffff -Ms b -Mt 800 -Is 11.255 -Id -1.255 -It message -Il 32 -If 0 -Ii 1 -Iv 32 
r -t 0.090936693 -Hs 6 -Hd -1 -Ni 6 -Nx 499.00 -Ny 261.00 -Nz 0.00 -Ne 49.945309 -Nl RTR -Nw --- -Ma 0 -Md ffffffff -Ms b -Mt 800 -Is 11.255 -Id -1.255 -It message -Il 32 -If 0 -Ii 1 -Iv 32 
s -t 0.184866015 -Hs 1 -Hd -1 -Ni 1 -Nx 361.00 -Ny 432.00 -Nz 0.00 -Ne 49.945309 -Nl RTR -Nw --- -Ma 0 -Md 0 -Ms 0 -Mt 0 -Is 1.255 -Id -1.255 -It message -Il 32 -If 0 -Ii 2 -Iv 32 
s -t 0.185481015 -Hs 1 -Hd -1 -Ni 1 -Nx 361.00 -Ny 432.00 -Nz 0.00 -Ne 49.945309 -Nl MAC -Nw --- -Ma 0 -Md ffffffff -Ms 1 -Mt 800 -Is 1.255 -Id -1.255 -It message -Il 90 -If 0 -Ii 2 -Iv 32 
N -t 0.185481 -n 2 -e 49.888063
N -t 0.185482 -n 0 -e 49.887991
N -t 0.185482 -n 7 -e 49.888063
N -t 0.185482 -n 6 -e 49.888063
N -t 0.185482 -n 3 -e 49.888063
N -t 0.185482 -n 8 -e 49.888063
N -t 0.185482 -n 5 -e 49.888063
N -t 0.185482 -n 4 -e 49.888063
N -t 0.185482 -n 9 -e 49.888063
N -t 0.185482 -n 13 -e 49.888063
N -t 0.185482 -n 10 -e 49.888063
N -t 0.185482 -n 12 -e 49.888135
N -t 0.185482 -n 11 -e 49.887991
N -t 0.185483 -n 15 -e 49.888134
N -t 0.185483 -n 14 -e 49.888134
r -t 0.186201499 -Hs 2 -Hd -1 -Ni 2 -Nx 363.00 -Ny 287.00 -Nz 0.00 -Ne 49.888063 -Nl MAC -Nw --- -Ma 0 -Md ffffffff -Ms 1 -Mt 800 -Is 1.255 -Id -1.255 -It message -Il 32 -If 0 -Ii 2 -Iv 32 
r -t 0.186201557 -Hs 0 -Hd -1 -Ni 0 -Nx 199.00 -Ny 443.00 -Nz 0.00 -Ne 49.887991 -Nl MAC -Nw --- -Ma 0 -Md ffffffff -Ms 1 -Mt 800 -Is 1.255 -Id -1.255 -It message -Il 32 -If 0 -Ii 2 -Iv 32 
r -t 0.186201694 -Hs 7 -Hd -1 -Ni 7 -Nx 564.00 -Ny 418.00 -Nz 0.00 -Ne 49.888063 -Nl MAC -Nw --- -Ma 0 -Md ffffffff -Ms 1 -Mt 800 -Is 1.255 -Id -1.255 -It message -Il 32 -If 0 -Ii 2 -Iv 32 
r -t 0.186201748 -Hs 6 -Hd -1 -Ni 6 -Nx 499.00 -Ny 261.00 -Nz 0.00 -Ne 49.888063 -Nl MAC -Nw --- -Ma 0 -Md ffffffff -Ms 1 -Mt 800 -Is 1.255 -Id -1.255 -It message -Il 32 -If 0 -Ii 2 -Iv 32 
r -t 0.186201751 -Hs 3 -Hd -1 -Ni 3 -Nx 210.00 -Ny 271.00 -Nz 0.00 -Ne 49.888063 -Nl MAC -Nw --- -Ma 0 -Md ffffffff -Ms 1 -Mt 800 -Is 1.255 -Id -1.255 -It message -Il 32 -If 0 -Ii 2 -Iv 32 
r -t 0.186226499 -Hs 2 -Hd -1 -Ni 2 -Nx 363.00 -Ny 287.00 -Nz 0.00 -Ne 49.888063 -Nl RTR -Nw --- -Ma 0 -Md ffffffff -Ms 1 -Mt 800 -Is 1.255 -Id -1.255 -It message -Il 32 -If 0 -Ii 2 -Iv 32 
r -t 0.186226557 -Hs 0 -Hd -1 -Ni 0 -Nx 199.00 -Ny 443.00 -Nz 0.00 -Ne 49.887991 -Nl RTR -Nw --- -Ma 0 -Md ffffffff -Ms 1 -Mt 800 -Is 1.255 -Id -1.255 -It message -Il 32 -If 0 -Ii 2 -Iv 32 
r -t 0.186226694 -Hs 7 -Hd -1 -Ni 7 -Nx 564.00 -Ny 418.00 -Nz 0.00 -Ne 49.888063 -Nl RTR -Nw --- -Ma 0 -Md ffffffff -Ms 1 -Mt 800 -Is 1.255 -Id -1.255 -It message -Il 32 -If 0 -Ii 2 -Iv 32 
r -t 0.186226748 -Hs 6 -Hd -1 -Ni 6 -Nx 499.00 -Ny 261.00 -Nz 0.00 -Ne 49.888063 -Nl RTR -Nw --- -Ma 0 -Md ffffffff -Ms 1 -Mt 800 -Is 1.255 -Id -1.255 -It message -Il 32 -If 0 -Ii 2 -Iv 32 
r -t 0.186226751 -Hs 3 -Hd -1 -Ni 3 -Nx 210.00 -Ny 271.00 -Nz 0.00 -Ne 49.888063 -Nl RTR -Nw --- -Ma 0 -Md ffffffff -Ms 1 -Mt 800 -Is 1.255 -Id -1.255 -It message -Il 32 -If 0 -Ii 2 -Iv 32 
s -t 0.236127563 -Hs 13 -Hd -1 -Ni 13 -Nx 728.00 -Ny 428.00 -Nz 0.00 -Ne 49.888063 -Nl RTR -Nw --- -Ma 0 -Md 0 -Ms 0 -Mt 0 -Is 13.255 -Id -1.255 -It message -Il 32 -If 0 -Ii 3 -Iv 32 
s -t 0.236562563 -Hs 13 -Hd -1 -Ni 13 -Nx 728.00 -Ny 428.00 -Nz 0.00 -Ne 49.888063 -Nl MAC -Nw --- -Ma 0 -Md ffffffff -Ms d -Mt 800 -Is 13.255 -Id -1.255 -It message -Il 90 -If 0 -Ii 3 -Iv 32 
N -t 0.236563 -n 12 -e 49.857414
N -t 0.236563 -n 7 -e 49.857342
N -t 0.236563 -n 8 -e 49.857342
N -t 0.236563 -n 16 -e 49.857486
N -t 0.236563 -n 11 -e 49.857270
N -t 0.236564 -n 6 -e 49.857342
N -t 0.236564 -n 9 -e 49.857342
N -t 0.236564 -n 1 -e 49.857198
N -t 0.236564 -n 14 -e 49.857414
N -t 0.236564 -n 2 -e 49.857342
N -t 0.236564 -n 5 -e 49.857342
N -t 0.236564 -n 15 -e 49.857414
N -t 0.236564 -n 10 -e 49.857341
N -t 0.236564 -n 0 -e 49.857269
N -t 0.236564 -n 3 -e 49.857341
r -t 0.237282949 -Hs 12 -Hd -1 -Ni 12 -Nx 758.00 -Ny 316.00 -Nz 0.00 -Ne 49.857414 -Nl MAC -Nw --- -Ma 0 -Md ffffffff -Ms d -Mt 800 -Is 13.255 -Id -1.255 -It message -Il 32 -If 0 -Ii 3 -Iv 32 
r -t 0.237283110 -Hs 7 -Hd -1 -Ni 7 -Nx 564.00 -Ny 418.00 -Nz 0.00 -Ne 49.857342 -Nl MAC -Nw --- -Ma 0 -Md ffffffff -Ms d -Mt 800 -Is 13.255 -Id -1.255 -It message -Il 32 -If 0 -Ii 3 -Iv 32 
r -t 0.237283165 -Hs 8 -Hd -1 -Ni 8 -Nx 609.00 -Ny 292.00 -Nz 0.00 -Ne 49.857342 -Nl MAC -Nw --- -Ma 0 -Md ffffffff -Ms d -Mt 800 -Is 13.255 -Id -1.255 -It message -Il 32 -If 0 -Ii 3 -Iv 32 
r -t 0.237307949 -Hs 12 -Hd -1 -Ni 12 -Nx 758.00 -Ny 316.00 -Nz 0.00 -Ne 49.857414 -Nl RTR -Nw --- -Ma 0 -Md ffffffff -Ms d -Mt 800 -Is 13.255 -Id -1.255 -It message -Il 32 -If 0 -Ii 3 -Iv 32 
r -t 0.237308110 -Hs 7 -Hd -1 -Ni 7 -Nx 564.00 -Ny 418.00 -Nz 0.00 -Ne 49.857342 -Nl RTR -Nw --- -Ma 0 -Md ffffffff -Ms d -Mt 800 -Is 13.255 -Id -1.255 -It message -Il 32 -If 0 -Ii 3 -Iv 32 
r -t 0.237308165 -Hs 8 -Hd -1 -Ni 8 -Nx 609.00 -Ny 292.00 -Nz 0.00 -Ne 49.857342 -Nl RTR -Nw --- -Ma 0 -Md ffffffff -Ms d -Mt 800 -Is 13.255 -Id -1.255 -It message -Il 32 -If 0 -Ii 3 -Iv 32 
s -t 0.332346004 -Hs 10 -Hd -1 -Ni 10 -Nx 370.00 -Ny 41.00 -Nz 0.00 -Ne 49.857341 -Nl RTR -Nw --- -Ma 0 -Md 0 -Ms 0 -Mt 0 -Is 10.255 -Id -1.255 -It message -Il 32 -If 0 -Ii 4 -Iv 32 
s -t 0.332621004 -Hs 10 -Hd -1 -Ni 10 -Nx 370.00 -Ny 41.00 -Nz 0.00 -Ne 49.857341 -Nl MAC -Nw --- -Ma 0 -Md ffffffff -Ms a -Mt 800 -Is 10.255 -Id -1.255 -It message -Il 90 -If 0 -Ii 4 -Iv 32 
N -t 0.332621 -n 5 -e 49.799635
N -t 0.332622 -n 4 -e 49.799707
N -t 0.332622 -n 15 -e 49.799707
N -t 0.332622 -n 9 -e 49.799635
N -t 0.332622 -n 2 -e 49.799635
N -t 0.332622 -n 6 -e 49.799635
N -t 0.332622 -n 3 -e 49.799635
N -t 0.332622 -n 14 -e 49.799707
N -t 0.332622 -n 11 -e 49.799563
N -t 0.332622 -n 8 -e 49.799635
N -t 0.332622 -n 1 -e 49.799491
N -t 0.332622 -n 7 -e 49.799635
N -t 0.332622 -n 0 -e 49.799563
N -t 0.332623 -n 12 -e 49.799706
N -t 0.332623 -n 16 -e 49.799778
N -t 0.332623 -n 13 -e 49.799490
r -t 0.333341354 -Hs 5 -Hd -1 -Ni 5 -Nx 402.00 -Ny 141.00 -Nz 0.00 -Ne 49.799635 -Nl MAC -Nw --- -Ma 0 -Md ffffffff -Ms a -Mt 800 -Is 10.255 -Id -1.255 -It message -Il 32 -If 0 -Ii 4 -Iv 32 
r -t 0.333341531 -Hs 4 -Hd -1 -Ni 4 -Nx 246.00 -Ny 139.00 -Nz 0.00 -Ne 49.799707 -Nl MAC -Nw --- -Ma 0 -Md ffffffff -Ms a -Mt 800 -Is 10.255 -Id -1.255 -It message -Il 32 -If 0 -Ii 4 -Iv 32 
r -t 0.333341628 -Hs 15 -Hd -1 -Ni 15 -Nx 556.00 -Ny 21.00 -Nz 0.00 -Ne 49.799707 -Nl MAC -Nw --- -Ma 0 -Md ffffffff -Ms a -Mt 800 -Is 10.255 -Id -1.255 -It message -Il 32 -If 0 -Ii 4 -Iv 32 
r -t 0.333341628 -Hs 9 -Hd -1 -Ni 9 -Nx 542.00 -Ny 115.00 -Nz 0.00 -Ne 49.799635 -Nl MAC -Nw --- -Ma 0 -Md ffffffff -Ms a -Mt 800 -Is 10.255 -Id -1.255 -It message -Il 32 -If 0 -Ii 4 -Iv 32 
r -t 0.333341824 -Hs 2 -Hd -1 -Ni 2 -Nx 363.00 -Ny 287.00 -Nz 0.00 -Ne 49.799635 -Nl MAC -Nw --- -Ma 0 -Md ffffffff -Ms a -Mt 800 -Is 10.255 -Id -1.255 -It message -Il 32 -If 0 -Ii 4 -Iv 32 
r -t 0.333366354 -Hs 5 -Hd -1 -Ni 5 -Nx 402.00 -Ny 141.00 -Nz 0.00 -Ne 49.799635 -Nl RTR -Nw --- -Ma 0 -Md ffffffff -Ms a -Mt 800 -Is 10.255 -Id -1.255 -It message -Il 32 -If 0 -Ii 4 -Iv 32 
r -t 0.333366531 -Hs 4 -Hd -1 -Ni 4 -Nx 246.00 -Ny 139.00 -Nz 0.00 -Ne 49.799707 -Nl RTR -Nw --- -Ma 0 -Md ffffffff -Ms a -Mt 800 -Is 10.255 -Id -1.255 -It message -Il 32 -If 0 -Ii 4 -Iv 32 
r -t 0.333366628 -Hs 15 -Hd -1 -Ni 15 -Nx 556.00 -Ny 21.00 -Nz 0.00 -Ne 49.799707 -Nl RTR -Nw --- -Ma 0 -Md ffffffff -Ms a -Mt 800 -Is 10.255 -Id -1.255 -It message -Il 32 -If 0 -Ii 4 -Iv 32 
r -t 0.333366628 -Hs 9 -Hd -1 -Ni 9 -Nx 542.00 -Ny 115.00 -Nz 0.00 -Ne 49.799635 -Nl RTR -Nw --- -Ma 0 -Md ffffffff -Ms a -Mt 800 -Is 10.255 -Id -1.255 -It message -Il 32 -If 0 -Ii 4 -Iv 32 
r -t 0.333366824 -Hs 2 -Hd -1 -Ni 2 -Nx 363.00 -Ny 287.00 -Nz 0.00 -Ne 49.799635 -Nl RTR -Nw --- -Ma 0 -Md ffffffff -Ms a -Mt 800 -Is 10.255 -Id -1.255 -It message -Il 32 -If 0 -Ii 4 -Iv 32 
s -t 0.358484943 -Hs 16 -Hd -1 -Ni 16 -Nx 856.00 -Ny 188.00 -Nz 0.00 -Ne 49.799778 -Nl RTR -Nw --- -Ma 0 -Md 0 -Ms 0 -Mt 0 -Is 16.255 -Id -1.255 -It message -Il 32 -If 0 -Ii 5 -Iv 32 
s -t 0.358759943 -Hs 16 -Hd -1 -Ni 16 -Nx 856.00 -Ny 188.00 -Nz 0.00 -Ne 49.799778 -Nl MAC -Nw --- -Ma 0 -Md ffffffff -Ms 10 -Mt 800 -Is 16.255 -Id -1.255 -It message -Il 90 -If 0 -Ii 5 -Iv 32 
N -t 0.358760 -n 12 -e 49.783952
N -t 0.358761 -n 11 -e 49.783808
N -t 0.358761 -n 14 -e 49.783952
N -t 0.358761 -n 8 -e 49.783879
N -t 0.358761 -n 13 -e 49.783735
N -t 0.358761 -n 9 -e 49.783879
N -t 0.358761 -n 15 -e 49.783951
N -t 0.358761 -n 6 -e 49.783879
N -t 0.358761 -n 7 -e 49.783879
N -t 0.358761 -n 5 -e 49.783879
N -t 0.358762 -n 2 -e 49.783879
N -t 0.358762 -n 10 -e 49.783735
r -t 0.359480480 -Hs 12 -Hd -1 -Ni 12 -Nx 758.00 -Ny 316.00 -Nz 0.00 -Ne 49.783952 -Nl MAC -Nw --- -Ma 0 -Md ffffffff -Ms 10 -Mt 800 -Is 16.255 -Id -1.255 -It message -Il 32 -If 0 -Ii 5 -Iv 32 
r -t 0.359480513 -Hs 11 -Hd -1 -Ni 11 -Nx 688.00 -Ny 156.00 -Nz 0.00 -Ne 49.783808 -Nl MAC -Nw --- -Ma 0 -Md ffffffff -Ms 10 -Mt 800 -Is 16.255 -Id -1.255 -It message -Il 32 -If 0 -Ii 5 -Iv 32 
r -t 0.359480641 -Hs 14 -Hd -1 -Ni 14 -Nx 695.00 -Ny 54.00 -Nz 0.00 -Ne 49.783952 -Nl MAC -Nw --- -Ma 0 -Md ffffffff -Ms 10 -Mt 800 -Is 16.255 -Id -1.255 -It message -Il 32 -If 0 -Ii 5 -Iv 32 
r -t 0.359505480 -Hs 12 -Hd -1 -Ni 12 -Nx 758.00 -Ny 316.00 -Nz 0.00 -Ne 49.783952 -Nl RTR -Nw --- -Ma 0 -Md ffffffff -Ms 10 -Mt 800 -Is 16.255 -Id -1.255 -It message -Il 32 -If 0 -Ii 5 -Iv 32 
r -t 0.359505513 -Hs 11 -Hd -1 -Ni 11 -Nx 688.00 -Ny 156.00 -Nz 0.00 -Ne 49.783808 -Nl RTR -Nw --- -Ma 0 -Md ffffffff -Ms 10 -Mt 800 -Is 16.255 -Id -1.255 -It message -Il 32 -If 0 -Ii 5 -Iv 32 
r -t 0.359505641 -Hs 14 -Hd -1 -Ni 14 -Nx 695.00 -Ny 54.00 -Nz 0.00 -Ne 49.783952 -Nl RTR -Nw --- -Ma 0 -Md ffffffff -Ms 10 -Mt 800 -Is 16.255 -Id -1.255 -It message -Il 32 -If 0 -Ii 5 -Iv 32 
s -t 0.469787530 -Hs 6 -Hd -1 -Ni 6 -Nx 499.00 -Ny 261.00 -Nz 0.00 -Ne 49.783879 -Nl RTR -Nw --- -Ma 0 -Md 0 -Ms 0 -Mt 0 -Is 6.255 -Id -1.255 -It message -Il 32 -If 0 -Ii 6 -Iv 32 
s -t 0.470202530 -Hs 6 -Hd -1 -Ni 6 -Nx 499.00 -Ny 261.00 -Nz 0.00 -Ne 49.783879 -Nl MAC -Nw --- -Ma 0 -Md ffffffff -Ms 6 -Mt 800 -Is 6.255 -Id -1.255 -It message -Il 90 -If 0 -Ii 6 -Iv 32 
N -t 0.470203 -n 8 -e 49.716942
N -t 0.470203 -n 2 -e 49.716942
N -t 0.470203 -n 9 -e 49.716942
N -t 0.470203 -n 5 -e 49.716942
N -t 0.470203 -n 7 -e 49.716942
N -t 0.470203 -n 11 -e 49.716870
N -t 0.470203 -n 1 -e 49.716870
N -t 0.470203 -n 15 -e 49.717014
N -t 0.470203 -n 10 -e 49.716798
N -t 0.470203 -n 12 -e 49.717014
N -t 0.470203 -n 4 -e 49.717086
N -t 0.470203 -n 13 -e 49.716798
N -t 0.470203 -n 14 -e 49.717014
N -t 0.470203 -n 3 -e 49.717014
N -t 0.470204 -n 0 -e 49.716942
N -t 0.470204 -n 16 -e 49.716942
r -t 0.470922911 -Hs 8 -Hd -1 -Ni 8 -Nx 609.00 -Ny 292.00 -Nz 0.00 -Ne 49.716942 -Nl MAC -Nw --- -Ma 0 -Md ffffffff -Ms 6 -Mt 800 -Is 6.255 -Id -1.255 -It message -Il 32 -If 0 -Ii 6 -Iv 32 
r -t 0.470922992 -Hs 2 -Hd -1 -Ni 2 -Nx 363.00 -Ny 287.00 -Nz 0.00 -Ne 49.716942 -Nl MAC -Nw --- -Ma 0 -Md ffffffff -Ms 6 -Mt 800 -Is 6.255 -Id -1.255 -It message -Il 32 -If 0 -Ii 6 -Iv 32 
r -t 0.470923037 -Hs 9 -Hd -1 -Ni 9 -Nx 542.00 -Ny 115.00 -Nz 0.00 -Ne 49.716942 -Nl MAC -Nw --- -Ma 0 -Md ffffffff -Ms 6 -Mt 800 -Is 6.255 -Id -1.255 -It message -Il 32 -If 0 -Ii 6 -Iv 32 
r -t 0.470923044 -Hs 5 -Hd -1 -Ni 5 -Nx 402.00 -Ny 141.00 -Nz 0.00 -Ne 49.716942 -Nl MAC -Nw --- -Ma 0 -Md ffffffff -Ms 6 -Mt 800 -Is 6.255 -Id -1.255 -It message -Il 32 -If 0 -Ii 6 -Iv 32 
r -t 0.470923096 -Hs 7 -Hd -1 -Ni 7 -Nx 564.00 -Ny 418.00 -Nz 0.00 -Ne 49.716942 -Nl MAC -Nw --- -Ma 0 -Md ffffffff -Ms 6 -Mt 800 -Is 6.255 -Id -1.255 -It message -Il 32 -If 0 -Ii 6 -Iv 32 
r -t 0.470923251 -Hs 11 -Hd -1 -Ni 11 -Nx 688.00 -Ny 156.00 -Nz 0.00 -Ne 49.716870 -Nl MAC -Nw --- -Ma 0 -Md ffffffff -Ms 6 -Mt 800 -Is 6.255 -Id -1.255 -It message -Il 32 -If 0 -Ii 6 -Iv 32 
r -t 0.470923262 -Hs 1 -Hd -1 -Ni 1 -Nx 361.00 -Ny 432.00 -Nz 0.00 -Ne 49.716870 -Nl MAC -Nw --- -Ma 0 -Md ffffffff -Ms 6 -Mt 800 -Is 6.255 -Id -1.255 -It message -Il 32 -If 0 -Ii 6 -Iv 32 
r -t 0.470923352 -Hs 15 -Hd -1 -Ni 15 -Nx 556.00 -Ny 21.00 -Nz 0.00 -Ne 49.717014 -Nl MAC -Nw --- -Ma 0 -Md ffffffff -Ms 6 -Mt 800 -Is 6.255 -Id -1.255 -It message -Il 32 -If 0 -Ii 6 -Iv 32 
r -t 0.470947911 -Hs 8 -Hd -1 -Ni 8 -Nx 609.00 -Ny 292.00 -Nz 0.00 -Ne 49.716942 -Nl RTR -Nw --- -Ma 0 -Md ffffffff -Ms 6 -Mt 800 -Is 6.255 -Id -1.255 -It message -Il 32 -If 0 -Ii 6 -Iv 32 
r -t 0.470947992 -Hs 2 -Hd -1 -Ni 2 -Nx 363.00 -Ny 287.00 -Nz 0.00 -Ne 49.716942 -Nl RTR -Nw --- -Ma 0 -Md ffffffff -Ms 6 -Mt 800 -Is 6.255 -Id -1.255 -It message -Il 32 -If 0 -Ii 6 -Iv 32 
r -t 0.470948037 -Hs 9 -Hd -1 -Ni 9 -Nx 542.00 -Ny 115.00 -Nz 0.00 -Ne 49.716942 -Nl RTR -Nw --- -Ma 0 -Md ffffffff -Ms 6 -Mt 800 -Is 6.255 -Id -1.255 -It message -Il 32 -If 0 -Ii 6 -Iv 32 
r -t 0.470948044 -Hs 5 -Hd -1 -Ni 5 -Nx 402.00 -Ny 141.00 -Nz 0.00 -Ne 49.716942 -Nl RTR -Nw --- -Ma 0 -Md ffffffff -Ms 6 -Mt 800 -Is 6.255 -Id -1.255 -It message -Il 32 -If 0 -Ii 6 -Iv 32 
r -t 0.470948096 -Hs 7 -Hd -1 -Ni 7 -Nx 564.00 -Ny 418.00 -Nz 0.00 -Ne 49.716942 -Nl RTR -Nw --- -Ma 0 -Md ffffffff -Ms 6 -Mt 800 -Is 6.255 -Id -1.255 -It message -Il 32 -If 0 -Ii 6 -Iv 32 
r -t 0.470948251 -Hs 11 -Hd -1 -Ni 11 -Nx 688.00 -Ny 156.00 -Nz 0.00 -Ne 49.716870 -Nl RTR -Nw --- -Ma 0 -Md ffffffff -Ms 6 -Mt 800 -Is 6.255 -Id -1.255 -It message -Il 32 -If 0 -Ii 6 -Iv 32 
r -t 0.470948262 -Hs 1 -Hd -1 -Ni 1 -Nx 361.00 -Ny 432.00 -Nz 0.00 -Ne 49.716870 -Nl RTR -Nw --- -Ma 0 -Md ffffffff -Ms 6 -Mt 800 -Is 6.255 -Id -1.255 -It message -Il 32 -If 0 -Ii 6 -Iv 32 
r -t 0.470948352 -Hs 15 -Hd -1 -Ni 15 -Nx 556.00 -Ny 21.00 -Nz 0.00 -Ne 49.717014 -Nl RTR -Nw --- -Ma 0 -Md ffffffff -Ms 6 -Mt 800 -Is 6.255 -Id -1.255 -It message -Il 32 -If 0 -Ii 6 -Iv 32 
s -t 0.619389151 -Hs 8 -Hd -1 -Ni 8 -Nx 609.00 -Ny 292.00 -Nz 0.00 -Ne 49.716942 -Nl RTR -Nw --- -Ma 0 -Md 0 -Ms 0 -Mt 0 -Is 8.255 -Id -1.255 -It message -Il 32 -If 0 -Ii 7 -Iv 32 
s -t 0.619744151 -Hs 8 -Hd -1 -Ni 8 -Nx 609.00 -Ny 292.00 -Nz 0.00 -Ne 49.716942 -Nl MAC -Nw --- -Ma 0 -Md ffffffff -Ms 8 -Mt 800 -Is 8.255 -Id -1.255 -It message -Il 90 -If 0 -Ii 7 -Iv 32 
N -t 0.619745 -n 6 -e 49.627001
N -t 0.619745 -n 7 -e 49.627145
N -t 0.619745 -n 12 -e 49.627217
N -t 0.619745 -n 11 -e 49.627073
N -t 0.619745 -n 13 -e 49.627001
N -t 0.619745 -n 9 -e 49.627145
N -t 0.619745 -n 2 -e 49.627145
N -t 0.619745 -n 14 -e 49.627217
N -t 0.619745 -n 5 -e 49.627145
N -t 0.619745 -n 16 -e 49.627145
N -t 0.619745 -n 15 -e 49.627217
N -t 0.619745 -n 1 -e 49.627073
N -t 0.619745 -n 10 -e 49.627001
N -t 0.619745 -n 4 -e 49.627289
N -t 0.619745 -n 3 -e 49.627217
N -t 0.619746 -n 0 -e 49.627145
r -t 0.620464532 -Hs 6 -Hd -1 -Ni 6 -Nx 499.00 -Ny 261.00 -Nz 0.00 -Ne 49.627001 -Nl MAC -Nw --- -Ma 0 -Md ffffffff -Ms 8 -Mt 800 -Is 8.255 -Id -1.255 -It message -Il 32 -If 0 -Ii 7 -Iv 32 
r -t 0.620464597 -Hs 7 -Hd -1 -Ni 7 -Nx 564.00 -Ny 418.00 -Nz 0.00 -Ne 49.627145 -Nl MAC -Nw --- -Ma 0 -Md ffffffff -Ms 8 -Mt 800 -Is 8.255 -Id -1.255 -It message -Il 32 -If 0 -Ii 7 -Iv 32 
r -t 0.620464654 -Hs 12 -Hd -1 -Ni 12 -Nx 758.00 -Ny 316.00 -Nz 0.00 -Ne 49.627217 -Nl MAC -Nw --- -Ma 0 -Md ffffffff -Ms 8 -Mt 800 -Is 8.255 -Id -1.255 -It message -Il 32 -If 0 -Ii 7 -Iv 32 
r -t 0.620464675 -Hs 11 -Hd -1 -Ni 11 -Nx 688.00 -Ny 156.00 -Nz 0.00 -Ne 49.627073 -Nl MAC -Nw --- -Ma 0 -Md ffffffff -Ms 8 -Mt 800 -Is 8.255 -Id -1.255 -It message -Il 32 -If 0 -Ii 7 -Iv 32 
r -t 0.620464753 -Hs 13 -Hd -1 -Ni 13 -Nx 728.00 -Ny 428.00 -Nz 0.00 -Ne 49.627001 -Nl MAC -Nw --- -Ma 0 -Md ffffffff -Ms 8 -Mt 800 -Is 8.255 -Id -1.255 -It message -Il 32 -If 0 -Ii 7 -Iv 32 
r -t 0.620464781 -Hs 9 -Hd -1 -Ni 9 -Nx 542.00 -Ny 115.00 -Nz 0.00 -Ne 49.627145 -Nl MAC -Nw --- -Ma 0 -Md ffffffff -Ms 8 -Mt 800 -Is 8.255 -Id -1.255 -It message -Il 32 -If 0 -Ii 7 -Iv 32 
r -t 0.620464971 -Hs 2 -Hd -1 -Ni 2 -Nx 363.00 -Ny 287.00 -Nz 0.00 -Ne 49.627145 -Nl MAC -Nw --- -Ma 0 -Md ffffffff -Ms 8 -Mt 800 -Is 8.255 -Id -1.255 -It message -Il 32 -If 0 -Ii 7 -Iv 32 
r -t 0.620489532 -Hs 6 -Hd -1 -Ni 6 -Nx 499.00 -Ny 261.00 -Nz 0.00 -Ne 49.627001 -Nl RTR -Nw --- -Ma 0 -Md ffffffff -Ms 8 -Mt 800 -Is 8.255 -Id -1.255 -It message -Il 32 -If 0 -Ii 7 -Iv 32 
r -t 0.620489597 -Hs 7 -Hd -1 -Ni 7 -Nx 564.00 -Ny 418.00 -Nz 0.00 -Ne 49.627145 -Nl RTR -Nw --- -Ma 0 -Md ffffffff -Ms 8 -Mt 800 -Is 8.255 -Id -1.255 -It message -Il 32 -If 0 -Ii 7 -Iv 32 
r -t 0.620489654 -Hs 12 -Hd -1 -Ni 12 -Nx 758.00 -Ny 316.00 -Nz 0.00 -Ne 49.627217 -Nl RTR -Nw --- -Ma 0 -Md ffffffff -Ms 8 -Mt 800 -Is 8.255 -Id -1.255 -It message -Il 32 -If 0 -Ii 7 -Iv 32 
r -t 0.620489675 -Hs 11 -Hd -1 -Ni 11 -Nx 688.00 -Ny 156.00 -Nz 0.00 -Ne 49.627073 -Nl RTR -Nw --- -Ma 0 -Md ffffffff -Ms 8 -Mt 800 -Is 8.255 -Id -1.255 -It message -Il 32 -If 0 -Ii 7 -Iv 32 
r -t 0.620489753 -Hs 13 -Hd -1 -Ni 13 -Nx 728.00 -Ny 428.00 -Nz 0.00 -Ne 49.627001 -Nl RTR -Nw --- -Ma 0 -Md ffffffff -Ms 8 -Mt 800 -Is 8.255 -Id -1.255 -It message -Il 32 -If 0 -Ii 7 -Iv 32 
r -t 0.620489781 -Hs 9 -Hd -1 -Ni 9 -Nx 542.00 -Ny 115.00 -Nz 0.00 -Ne 49.627145 -Nl RTR -Nw --- -Ma 0 -Md ffffffff -Ms 8 -Mt 800 -Is 8.255 -Id -1.255 -It message -Il 32 -If 0 -Ii 7 -Iv 32 
r -t 0.620489971 -Hs 2 -Hd -1 -Ni 2 -Nx 363.00 -Ny 287.00 -Nz 0.00 -Ne 49.627145 -Nl RTR -Nw --- -Ma 0 -Md ffffffff -Ms 8 -Mt 800 -Is 8.255 -Id -1.255 -It message -Il 32 -If 0 -Ii 7 -Iv 32 
s -t 0.631371763 -Hs 4 -Hd -1 -Ni 4 -Nx 246.00 -Ny 139.00 -Nz 0.00 -Ne 49.627289 -Nl RTR -Nw --- -Ma 0 -Md 0 -Ms 0 -Mt 0 -Is 4.255 -Id -1.255 -It message -Il 32 -If 0 -Ii 8 -Iv 32 
s -t 0.631766763 -Hs 4 -Hd -1 -Ni 4 -Nx 246.00 -Ny 139.00 -Nz 0.00 -Ne 49.627289 -Nl MAC -Nw --- -Ma 0 -Md ffffffff -Ms 4 -Mt 800 -Is 4.255 -Id -1.255 -It message -Il 90 -If 0 -Ii 8 -Iv 32 
N -t 0.631767 -n 3 -e 49.619932
N -t 0.631767 -n 5 -e 49.619860
N -t 0.631767 -n 10 -e 49.619716
N -t 0.631767 -n 2 -e 49.619860
N -t 0.631768 -n 6 -e 49.619715
N -t 0.631768 -n 9 -e 49.619859
N -t 0.631768 -n 0 -e 49.619859
N -t 0.631768 -n 1 -e 49.619787
N -t 0.631768 -n 15 -e 49.619931
N -t 0.631768 -n 8 -e 49.619715
N -t 0.631768 -n 7 -e 49.619859
N -t 0.631768 -n 11 -e 49.619787
N -t 0.631768 -n 14 -e 49.619931
N -t 0.631769 -n 12 -e 49.619931
r -t 0.632487219 -Hs 3 -Hd -1 -Ni 3 -Nx 210.00 -Ny 271.00 -Nz 0.00 -Ne 49.619932 -Nl MAC -Nw --- -Ma 0 -Md ffffffff -Ms 4 -Mt 800 -Is 4.255 -Id -1.255 -It message -Il 32 -If 0 -Ii 8 -Iv 32 
r -t 0.632487283 -Hs 5 -Hd -1 -Ni 5 -Nx 402.00 -Ny 141.00 -Nz 0.00 -Ne 49.619860 -Nl MAC -Nw --- -Ma 0 -Md ffffffff -Ms 4 -Mt 800 -Is 4.255 -Id -1.255 -It message -Il 32 -If 0 -Ii 8 -Iv 32 
r -t 0.632487290 -Hs 10 -Hd -1 -Ni 10 -Nx 370.00 -Ny 41.00 -Nz 0.00 -Ne 49.619716 -Nl MAC -Nw --- -Ma 0 -Md ffffffff -Ms 4 -Mt 800 -Is 4.255 -Id -1.255 -It message -Il 32 -If 0 -Ii 8 -Iv 32 
r -t 0.632487392 -Hs 2 -Hd -1 -Ni 2 -Nx 363.00 -Ny 287.00 -Nz 0.00 -Ne 49.619860 -Nl MAC -Nw --- -Ma 0 -Md ffffffff -Ms 4 -Mt 800 -Is 4.255 -Id -1.255 -It message -Il 32 -If 0 -Ii 8 -Iv 32 
r -t 0.632512219 -Hs 3 -Hd -1 -Ni 3 -Nx 210.00 -Ny 271.00 -Nz 0.00 -Ne 49.619932 -Nl RTR -Nw --- -Ma 0 -Md ffffffff -Ms 4 -Mt 800 -Is 4.255 -Id -1.255 -It message -Il 32 -If 0 -Ii 8 -Iv 32 
r -t 0.632512283 -Hs 5 -Hd -1 -Ni 5 -Nx 402.00 -Ny 141.00 -Nz 0.00 -Ne 49.619860 -Nl RTR -Nw --- -Ma 0 -Md ffffffff -Ms 4 -Mt 800 -Is 4.255 -Id -1.255 -It message -Il 32 -If 0 -Ii 8 -Iv 32 
r -t 0.632512290 -Hs 10 -Hd -1 -Ni 10 -Nx 370.00 -Ny 41.00 -Nz 0.00 -Ne 49.619716 -Nl RTR -Nw --- -Ma 0 -Md ffffffff -Ms 4 -Mt 800 -Is 4.255 -Id -1.255 -It message -Il 32 -If 0 -Ii 8 -Iv 32 
r -t 0.632512392 -Hs 2 -Hd -1 -Ni 2 -Nx 363.00 -Ny 287.00 -Nz 0.00 -Ne 49.619860 -Nl RTR -Nw --- -Ma 0 -Md ffffffff -Ms 4 -Mt 800 -Is 4.255 -Id -1.255 -It message -Il 32 -If 0 -Ii 8 -Iv 32 
s -t 0.851570345 -Hs 15 -Hd -1 -Ni 15 -Nx 556.00 -Ny 21.00 -Nz 0.00 -Ne 49.619931 -Nl RTR -Nw --- -Ma 0 -Md 0 -Ms 0 -Mt 0 -Is 15.255 -Id -1.255 -It message -Il 32 -If 0 -Ii 9 -Iv 32 
s -t 0.851945345 -Hs 15 -Hd -1 -Ni 15 -Nx 556.00 -Ny 21.00 -Nz 0.00 -Ne 49.619931 -Nl MAC -Nw --- -Ma 0 -Md ffffffff -Ms f -Mt 800 -Is 15.255 -Id -1.255 -It message -Il 90 -If 0 -Ii 9 -Iv 32 
N -t 0.851946 -n 9 -e 49.487681
N -t 0.851946 -n 14 -e 49.487753
N -t 0.851946 -n 10 -e 49.487536
N -t 0.851946 -n 11 -e 49.487608
N -t 0.851946 -n 5 -e 49.487680
N -t 0.851946 -n 6 -e 49.487536
N -t 0.851946 -n 8 -e 49.487536
N -t 0.851946 -n 2 -e 49.487680
N -t 0.851946 -n 4 -e 49.487680
N -t 0.851946 -n 16 -e 49.487752
N -t 0.851947 -n 12 -e 49.487752
N -t 0.851947 -n 7 -e 49.487680
N -t 0.851947 -n 3 -e 49.487752
N -t 0.851947 -n 13 -e 49.487608
N -t 0.851947 -n 1 -e 49.487608
r -t 0.852665662 -Hs 9 -Hd -1 -Ni 9 -Nx 542.00 -Ny 115.00 -Nz 0.00 -Ne 49.487681 -Nl MAC -Nw --- -Ma 0 -Md ffffffff -Ms f -Mt 800 -Is 15.255 -Id -1.255 -It message -Il 32 -If 0 -Ii 9 -Iv 32 
r -t 0.852665822 -Hs 14 -Hd -1 -Ni 14 -Nx 695.00 -Ny 54.00 -Nz 0.00 -Ne 49.487753 -Nl MAC -Nw --- -Ma 0 -Md ffffffff -Ms f -Mt 800 -Is 15.255 -Id -1.255 -It message -Il 32 -If 0 -Ii 9 -Iv 32 
r -t 0.852665969 -Hs 10 -Hd -1 -Ni 10 -Nx 370.00 -Ny 41.00 -Nz 0.00 -Ne 49.487536 -Nl MAC -Nw --- -Ma 0 -Md ffffffff -Ms f -Mt 800 -Is 15.255 -Id -1.255 -It message -Il 32 -If 0 -Ii 9 -Iv 32 
r -t 0.852665975 -Hs 11 -Hd -1 -Ni 11 -Nx 688.00 -Ny 156.00 -Nz 0.00 -Ne 49.487608 -Nl MAC -Nw --- -Ma 0 -Md ffffffff -Ms f -Mt 800 -Is 15.255 -Id -1.255 -It message -Il 32 -If 0 -Ii 9 -Iv 32 
r -t 0.852665996 -Hs 5 -Hd -1 -Ni 5 -Nx 402.00 -Ny 141.00 -Nz 0.00 -Ne 49.487680 -Nl MAC -Nw --- -Ma 0 -Md ffffffff -Ms f -Mt 800 -Is 15.255 -Id -1.255 -It message -Il 32 -If 0 -Ii 9 -Iv 32 
r -t 0.852666168 -Hs 6 -Hd -1 -Ni 6 -Nx 499.00 -Ny 261.00 -Nz 0.00 -Ne 49.487536 -Nl MAC -Nw --- -Ma 0 -Md ffffffff -Ms f -Mt 800 -Is 15.255 -Id -1.255 -It message -Il 32 -If 0 -Ii 9 -Iv 32 
r -t 0.852690662 -Hs 9 -Hd -1 -Ni 9 -Nx 542.00 -Ny 115.00 -Nz 0.00 -Ne 49.487681 -Nl RTR -Nw --- -Ma 0 -Md ffffffff -Ms f -Mt 800 -Is 15.255 -Id -1.255 -It message -Il 32 -If 0 -Ii 9 -Iv 32 
r -t 0.852690822 -Hs 14 -Hd -1 -Ni 14 -Nx 695.00 -Ny 54.00 -Nz 0.00 -Ne 49.487753 -Nl RTR -Nw --- -Ma 0 -Md ffffffff -Ms f -Mt 800 -Is 15.255 -Id -1.255 -It message -Il 32 -If 0 -Ii 9 -Iv 32 
r -t 0.852690969 -Hs 10 -Hd -1 -Ni 10 -Nx 370.00 -Ny 41.00 -Nz 0.00 -Ne 49.487536 -Nl RTR -Nw --- -Ma 0 -Md ffffffff -Ms f -Mt 800 -Is 15.255 -Id -1.255 -It message -Il 32 -If 0 -Ii 9 -Iv 32 
r -t 0.852690975 -Hs 11 -Hd -1 -Ni 11 -Nx 688.00 -Ny 156.00 -Nz 0.00 -Ne 49.487608 -Nl RTR -Nw --- -Ma 0 -Md ffffffff -Ms f -Mt 800 -Is 15.255 -Id -1.255 -It message -Il 32 -If 0 -Ii 9 -Iv 32 
r -t 0.852690996 -Hs 5 -Hd -1 -Ni 5 -Nx 402.00 -Ny 141.00 -Nz 0.00 -Ne 49.487680 -Nl RTR -Nw --- -Ma 0 -Md ffffffff -Ms f -Mt 800 -Is 15.255 -Id -1.255 -It message -Il 32 -If 0 -Ii 9 -Iv 32 
r -t 0.852691168 -Hs 6 -Hd -1 -Ni 6 -Nx 499.00 -Ny 261.00 -Nz 0.00 -Ne 49.487536 -Nl RTR -Nw --- -Ma 0 -Md ffffffff -Ms f -Mt 800 -Is 15.255 -Id -1.255 -It message -Il 32 -If 0 -Ii 9 -Iv 32 
s -t 0.890196635 -Hs 2 -Hd -1 -Ni 2 -Nx 363.00 -Ny 287.00 -Nz 0.00 -Ne 49.487680 -Nl RTR -Nw --- -Ma 0 -Md 0 -Ms 0 -Mt 0 -Is 2.255 -Id -1.255 -It message -Il 32 -If 0 -Ii 10 -Iv 32 
s -t 0.890551635 -Hs 2 -Hd -1 -Ni 2 -Nx 363.00 -Ny 287.00 -Nz 0.00 -Ne 49.487680 -Nl MAC -Nw --- -Ma 0 -Md ffffffff -Ms 2 -Mt 800 -Is 2.255 -Id -1.255 -It message -Il 90 -If 0 -Ii 10 -Iv 32 
N -t 0.890552 -n 6 -e 49.464301
N -t 0.890552 -n 1 -e 49.464373
N -t 0.890552 -n 5 -e 49.464445
N -t 0.890552 -n 3 -e 49.464517
N -t 0.890552 -n 4 -e 49.464445
N -t 0.890552 -n 0 -e 49.464517
N -t 0.890552 -n 7 -e 49.464445
N -t 0.890552 -n 8 -e 49.464301
N -t 0.890552 -n 10 -e 49.464301
N -t 0.890552 -n 9 -e 49.464445
N -t 0.890553 -n 15 -e 49.464372
N -t 0.890553 -n 11 -e 49.464372
N -t 0.890553 -n 13 -e 49.464372
N -t 0.890553 -n 12 -e 49.464516
N -t 0.890553 -n 14 -e 49.464516
N -t 0.890553 -n 16 -e 49.464516
r -t 0.891272097 -Hs 6 -Hd -1 -Ni 6 -Nx 499.00 -Ny 261.00 -Nz 0.00 -Ne 49.464301 -Nl MAC -Nw --- -Ma 0 -Md ffffffff -Ms 2 -Mt 800 -Is 2.255 -Id -1.255 -It message -Il 32 -If 0 -Ii 10 -Iv 32 
r -t 0.891272119 -Hs 1 -Hd -1 -Ni 1 -Nx 361.00 -Ny 432.00 -Nz 0.00 -Ne 49.464373 -Nl MAC -Nw --- -Ma 0 -Md ffffffff -Ms 2 -Mt 800 -Is 2.255 -Id -1.255 -It message -Il 32 -If 0 -Ii 10 -Iv 32 
r -t 0.891272139 -Hs 5 -Hd -1 -Ni 5 -Nx 402.00 -Ny 141.00 -Nz 0.00 -Ne 49.464445 -Nl MAC -Nw --- -Ma 0 -Md ffffffff -Ms 2 -Mt 800 -Is 2.255 -Id -1.255 -It message -Il 32 -If 0 -Ii 10 -Iv 32 
r -t 0.891272148 -Hs 3 -Hd -1 -Ni 3 -Nx 210.00 -Ny 271.00 -Nz 0.00 -Ne 49.464517 -Nl MAC -Nw --- -Ma 0 -Md ffffffff -Ms 2 -Mt 800 -Is 2.255 -Id -1.255 -It message -Il 32 -If 0 -Ii 10 -Iv 32 
r -t 0.891272264 -Hs 4 -Hd -1 -Ni 4 -Nx 246.00 -Ny 139.00 -Nz 0.00 -Ne 49.464445 -Nl MAC -Nw --- -Ma 0 -Md ffffffff -Ms 2 -Mt 800 -Is 2.255 -Id -1.255 -It message -Il 32 -If 0 -Ii 10 -Iv 32 
r -t 0.891272390 -Hs 0 -Hd -1 -Ni 0 -Nx 199.00 -Ny 443.00 -Nz 0.00 -Ne 49.464517 -Nl MAC -Nw --- -Ma 0 -Md ffffffff -Ms 2 -Mt 800 -Is 2.255 -Id -1.255 -It message -Il 32 -If 0 -Ii 10 -Iv 32 