n -t * -s 0  -x 460 -y 390 -Z 0 -z 200  -v circle -c green
n -t * -s 1  -x 490 -y 460 -Z 0 -z 80  -v circle -c green
n -t * -s 2  -x 50 -y 400 -Z 0 -z 160  -v circle -c green
n -t * -s 3  -x 80 -y 350 -Z 0 -z 80  -v circle -c green
n -t * -s 4  -x 350 -y 320 -Z 0 -z 120  -v circle -c green
n -t * -s 5  -x 390 -y 420 -Z 0 -z 120  -v circle -c green
V -t * -v 1.0a5 -a 0
W -t * -x 500 -y 500
A -t * -n 1 -p 0 -o 0x7fffffff -c 30 -a 1
A -t * -h 1 -m 1073741823 -s 0
+ -t 0.500000000 -s 2 -d -1 -p cbr -e 210 -c 2 -a 0 -i 0 -k AGT 
- -t 0.500000000 -s 2 -d -1 -p cbr -e 210 -c 2 -a 0 -i 0 -k AGT
h -t 0.500000000 -s 2 -d -1 -p cbr -e 210 -c 2 -a 0 -i 0 -k AGT
+ -t 0.500000000 -s 2 -d -1 -p AODV -e 48 -c 2 -a 0 -i 0 -k RTR 
- -t 0.500000000 -s 2 -d -1 -p AODV -e 48 -c 2 -a 0 -i 0 -k RTR
h -t 0.500000000 -s 2 -d -1 -p AODV -e 48 -c 2 -a 0 -i 0 -k RTR
+ -t 0.500115000 -s 2 -d -1 -p AODV -e 106 -c 2 -a 0 -i 0 -k MAC 
- -t 0.500115000 -s 2 -d -1 -p AODV -e 106 -c 2 -a 0 -i 0 -k MAC
h -t 0.500115000 -s 2 -d -1 -p AODV -e 106 -c 2 -a 0 -i 0 -k MAC
r -t 0.500963194 -s 3 -d -1 -p AODV -e 48 -c 2 -a 0 -i 0 -k MAC
r -t 0.500988194 -s 3 -d -1 -p AODV -e 48 -c 2 -a 0 -i 0 -k RTR
+ -t 0.500988194 -s 3 -d 2 -p AODV -e 44 -c 2 -a 0 -i 0 -k RTR 
- -t 0.500988194 -s 3 -d 2 -p AODV -e 44 -c 2 -a 0 -i 0 -k RTR
h -t 0.500988194 -s 3 -d 2 -p AODV -e 44 -c 2 -a 0 -i 0 -k RTR
+ -t 0.501343194 -s 3 -d -1 -p ARP -e 86 -c 2 -a 0 -i 0 -k MAC 
- -t 0.501343194 -s 3 -d -1 -p ARP -e 86 -c 2 -a 0 -i 0 -k MAC
h -t 0.501343194 -s 3 -d -1 -p ARP -e 86 -c 2 -a 0 -i 0 -k MAC
r -t 0.502031389 -s 2 -d -1 -p ARP -e 28 -c 2 -a 0 -i 0 -k MAC
+ -t 0.502321389 -s 2 -d -1 -p RTS -e 44 -c 2 -a 0 -i 0 -k MAC 
- -t 0.502321389 -s 2 -d -1 -p RTS -e 44 -c 2 -a 0 -i 0 -k MAC
h -t 0.502321389 -s 2 -d -1 -p RTS -e 44 -c 2 -a 0 -i 0 -k MAC
r -t 0.502673583 -s 3 -d -1 -p RTS -e 44 -c 2 -a 0 -i 0 -k MAC
+ -t 0.502683583 -s 3 -d -1 -p CTS -e 38 -c 2 -a 0 -i 0 -k MAC 
- -t 0.502683583 -s 3 -d -1 -p CTS -e 38 -c 2 -a 0 -i 0 -k MAC
h -t 0.502683583 -s 3 -d -1 -p CTS -e 38 -c 2 -a 0 -i 0 -k MAC
r -t 0.502987777 -s 2 -d -1 -p CTS -e 38 -c 2 -a 0 -i 0 -k MAC
+ -t 0.502997777 -s 2 -d -1 -p ARP -e 86 -c 2 -a 0 -i 0 -k MAC 
- -t 0.502997777 -s 2 -d -1 -p ARP -e 86 -c 2 -a 0 -i 0 -k MAC
h -t 0.502997777 -s 2 -d -1 -p ARP -e 86 -c 2 -a 0 -i 0 -k MAC
r -t 0.503685972 -s 3 -d -1 -p ARP -e 28 -c 2 -a 0 -i 0 -k MAC
+ -t 0.503695972 -s 3 -d -1 -p ACK -e 38 -c 2 -a 0 -i 0 -k MAC 
- -t 0.503695972 -s 3 -d -1 -p ACK -e 38 -c 2 -a 0 -i 0 -k MAC
h -t 0.503695972 -s 3 -d -1 -p ACK -e 38 -c 2 -a 0 -i 0 -k MAC
+ -t 0.503750000 -s 2 -d -1 -p cbr -e 210 -c 2 -a 0 -i 1 -k AGT 
- -t 0.503750000 -s 2 -d -1 -p cbr -e 210 -c 2 -a 0 -i 1 -k AGT
h -t 0.503750000 -s 2 -d -1 -p cbr -e 210 -c 2 -a 0 -i 1 -k AGT
r -t 0.504000166 -s 2 -d -1 -p ACK -e 38 -c 2 -a 0 -i 0 -k MAC
+ -t 0.504129972 -s 3 -d -1 -p RTS -e 44 -c 2 -a 0 -i 0 -k MAC 
- -t 0.504129972 -s 3 -d -1 -p RTS -e 44 -c 2 -a 0 -i 0 -k MAC
h -t 0.504129972 -s 3 -d -1 -p RTS -e 44 -c 2 -a 0 -i 0 -k MAC
r -t 0.504482166 -s 2 -d -1 -p RTS -e 44 -c 2 -a 0 -i 0 -k MAC
+ -t 0.504492166 -s 2 -d -1 -p CTS -e 38 -c 2 -a 0 -i 0 -k MAC 
- -t 0.504492166 -s 2 -d -1 -p CTS -e 38 -c 2 -a 0 -i 0 -k MAC
h -t 0.504492166 -s 2 -d -1 -p CTS -e 38 -c 2 -a 0 -i 0 -k MAC
r -t 0.504796361 -s 3 -d -1 -p CTS -e 38 -c 2 -a 0 -i 0 -k MAC
+ -t 0.504806361 -s 3 -d 2 -p AODV -e 102 -c 2 -a 0 -i 0 -k MAC 
- -t 0.504806361 -s 3 -d 2 -p AODV -e 102 -c 2 -a 0 -i 0 -k MAC
h -t 0.504806361 -s 3 -d 2 -p AODV -e 102 -c 2 -a 0 -i 0 -k MAC
r -t 0.505622555 -s 2 -d 2 -p AODV -e 44 -c 2 -a 0 -i 0 -k MAC
+ -t 0.505632555 -s 2 -d -1 -p ACK -e 38 -c 2 -a 0 -i 0 -k MAC 
- -t 0.505632555 -s 2 -d -1 -p ACK -e 38 -c 2 -a 0 -i 0 -k MAC
h -t 0.505632555 -s 2 -d -1 -p ACK -e 38 -c 2 -a 0 -i 0 -k MAC
+ -t 0.505647555 -s 2 -d 3 -p cbr -e 230 -c 2 -a 0 -i 0 -k RTR 
- -t 0.505647555 -s 2 -d 3 -p cbr -e 230 -c 2 -a 0 -i 0 -k RTR
h -t 0.505647555 -s 2 -d 3 -p cbr -e 230 -c 2 -a 0 -i 0 -k RTR
r -t 0.505936749 -s 3 -d -1 -p ACK -e 38 -c 2 -a 0 -i 0 -k MAC
+ -t 0.506146555 -s 2 -d -1 -p RTS -e 44 -c 2 -a 0 -i 0 -k MAC 
- -t 0.506146555 -s 2 -d -1 -p RTS -e 44 -c 2 -a 0 -i 0 -k MAC
h -t 0.506146555 -s 2 -d -1 -p RTS -e 44 -c 2 -a 0 -i 0 -k MAC
r -t 0.506498749 -s 3 -d -1 -p RTS -e 44 -c 2 -a 0 -i 0 -k MAC
+ -t 0.506508749 -s 3 -d -1 -p CTS -e 38 -c 2 -a 0 -i 0 -k MAC 
- -t 0.506508749 -s 3 -d -1 -p CTS -e 38 -c 2 -a 0 -i 0 -k MAC
h -t 0.506508749 -s 3 -d -1 -p CTS -e 38 -c 2 -a 0 -i 0 -k MAC
r -t 0.506812944 -s 2 -d -1 -p CTS -e 38 -c 2 -a 0 -i 0 -k MAC
+ -t 0.506822944 -s 2 -d 3 -p cbr -e 288 -c 2 -a 0 -i 0 -k MAC 
- -t 0.506822944 -s 2 -d 3 -p cbr -e 288 -c 2 -a 0 -i 0 -k MAC
h -t 0.506822944 -s 2 -d 3 -p cbr -e 288 -c 2 -a 0 -i 0 -k MAC
+ -t 0.507500000 -s 2 -d -1 -p cbr -e 210 -c 2 -a 0 -i 2 -k AGT 
- -t 0.507500000 -s 2 -d -1 -p cbr -e 210 -c 2 -a 0 -i 2 -k AGT
h -t 0.507500000 -s 2 -d -1 -p cbr -e 210 -c 2 -a 0 -i 2 -k AGT
+ -t 0.507500000 -s 2 -d 3 -p cbr -e 230 -c 2 -a 0 -i 2 -k RTR 
- -t 0.507500000 -s 2 -d 3 -p cbr -e 230 -c 2 -a 0 -i 2 -k RTR
h -t 0.507500000 -s 2 -d 3 -p cbr -e 230 -c 2 -a 0 -i 2 -k RTR
r -t 0.509127138 -s 3 -d 3 -p cbr -e 230 -c 2 -a 0 -i 0 -k MAC
+ -t 0.509137138 -s 3 -d -1 -p ACK -e 38 -c 2 -a 0 -i 0 -k MAC 
- -t 0.509137138 -s 3 -d -1 -p ACK -e 38 -c 2 -a 0 -i 0 -k MAC
h -t 0.509137138 -s 3 -d -1 -p ACK -e 38 -c 2 -a 0 -i 0 -k MAC
r -t 0.509152138 -s 3 -d 3 -p cbr -e 230 -c 2 -a 0 -i 0 -k AGT
r -t 0.509441332 -s 2 -d -1 -p ACK -e 38 -c 2 -a 0 -i 0 -k MAC
+ -t 0.509731332 -s 2 -d -1 -p RTS -e 44 -c 2 -a 0 -i 0 -k MAC 
- -t 0.509731332 -s 2 -d -1 -p RTS -e 44 -c 2 -a 0 -i 0 -k MAC
h -t 0.509731332 -s 2 -d -1 -p RTS -e 44 -c 2 -a 0 -i 0 -k MAC
r -t 0.510083527 -s 3 -d -1 -p RTS -e 44 -c 2 -a 0 -i 0 -k MAC
+ -t 0.510093527 -s 3 -d -1 -p CTS -e 38 -c 2 -a 0 -i 0 -k MAC 
- -t 0.510093527 -s 3 -d -1 -p CTS -e 38 -c 2 -a 0 -i 0 -k MAC
h -t 0.510093527 -s 3 -d -1 -p CTS -e 38 -c 2 -a 0 -i 0 -k MAC
r -t 0.510397721 -s 2 -d -1 -p CTS -e 38 -c 2 -a 0 -i 0 -k MAC
+ -t 0.510407721 -s 2 -d 3 -p cbr -e 288 -c 2 -a 0 -i 2 -k MAC 
- -t 0.510407721 -s 2 -d 3 -p cbr -e 288 -c 2 -a 0 -i 2 -k MAC
h -t 0.510407721 -s 2 -d 3 -p cbr -e 288 -c 2 -a 0 -i 2 -k MAC
+ -t 0.511250000 -s 2 -d -1 -p cbr -e 210 -c 2 -a 0 -i 3 -k AGT 
- -t 0.511250000 -s 2 -d -1 -p cbr -e 210 -c 2 -a 0 -i 3 -k AGT
h -t 0.511250000 -s 2 -d -1 -p cbr -e 210 -c 2 -a 0 -i 3 -k AGT
+ -t 0.511250000 -s 2 -d 3 -p cbr -e 230 -c 2 -a 0 -i 3 -k RTR 
- -t 0.511250000 -s 2 -d 3 -p cbr -e 230 -c 2 -a 0 -i 3 -k RTR
h -t 0.511250000 -s 2 -d 3 -p cbr -e 230 -c 2 -a 0 -i 3 -k RTR
r -t 0.512711915 -s 3 -d 3 -p cbr -e 230 -c 2 -a 0 -i 2 -k MAC
+ -t 0.512721915 -s 3 -d -1 -p ACK -e 38 -c 2 -a 0 -i 0 -k MAC 
- -t 0.512721915 -s 3 -d -1 -p ACK -e 38 -c 2 -a 0 -i 0 -k MAC
h -t 0.512721915 -s 3 -d -1 -p ACK -e 38 -c 2 -a 0 -i 0 -k MAC
r -t 0.512736915 -s 3 -d 3 -p cbr -e 230 -c 2 -a 0 -i 2 -k AGT
r -t 0.513026110 -s 2 -d -1 -p ACK -e 38 -c 2 -a 0 -i 0 -k MAC
+ -t 0.513436110 -s 2 -d -1 -p RTS -e 44 -c 2 -a 0 -i 0 -k MAC 
- -t 0.513436110 -s 2 -d -1 -p RTS -e 44 -c 2 -a 0 -i 0 -k MAC
h -t 0.513436110 -s 2 -d -1 -p RTS -e 44 -c 2 -a 0 -i 0 -k MAC
r -t 0.513788304 -s 3 -d -1 -p RTS -e 44 -c 2 -a 0 -i 0 -k MAC
+ -t 0.513798304 -s 3 -d -1 -p CTS -e 38 -c 2 -a 0 -i 0 -k MAC 
- -t 0.513798304 -s 3 -d -1 -p CTS -e 38 -c 2 -a 0 -i 0 -k MAC
h -t 0.513798304 -s 3 -d -1 -p CTS -e 38 -c 2 -a 0 -i 0 -k MAC
r -t 0.514102499 -s 2 -d -1 -p CTS -e 38 -c 2 -a 0 -i 0 -k MAC
+ -t 0.514112499 -s 2 -d 3 -p cbr -e 288 -c 2 -a 0 -i 3 -k MAC 
- -t 0.514112499 -s 2 -d 3 -p cbr -e 288 -c 2 -a 0 -i 3 -k MAC
h -t 0.514112499 -s 2 -d 3 -p cbr -e 288 -c 2 -a 0 -i 3 -k MAC
+ -t 0.515000000 -s 2 -d -1 -p cbr -e 210 -c 2 -a 0 -i 4 -k AGT 
- -t 0.515000000 -s 2 -d -1 -p cbr -e 210 -c 2 -a 0 -i 4 -k AGT
h -t 0.515000000 -s 2 -d -1 -p cbr -e 210 -c 2 -a 0 -i 4 -k AGT
+ -t 0.515000000 -s 2 -d 3 -p cbr -e 230 -c 2 -a 0 -i 4 -k RTR 
- -t 0.515000000 -s 2 -d 3 -p cbr -e 230 -c 2 -a 0 -i 4 -k RTR
h -t 0.515000000 -s 2 -d 3 -p cbr -e 230 -c 2 -a 0 -i 4 -k RTR
+ -t 0.515647555 -s 2 -d 3 -p cbr -e 230 -c 2 -a 0 -i 1 -k RTR 
- -t 0.515647555 -s 2 -d 3 -p cbr -e 230 -c 2 -a 0 -i 1 -k RTR
h -t 0.515647555 -s 2 -d 3 -p cbr -e 230 -c 2 -a 0 -i 1 -k RTR
r -t 0.516416693 -s 3 -d 3 -p cbr -e 230 -c 2 -a 0 -i 3 -k MAC
+ -t 0.516426693 -s 3 -d -1 -p ACK -e 38 -c 2 -a 0 -i 0 -k MAC 
- -t 0.516426693 -s 3 -d -1 -p ACK -e 38 -c 2 -a 0 -i 0 -k MAC
h -t 0.516426693 -s 3 -d -1 -p ACK -e 38 -c 2 -a 0 -i 0 -k MAC
r -t 0.516441693 -s 3 -d 3 -p cbr -e 230 -c 2 -a 0 -i 3 -k AGT
r -t 0.516730887 -s 2 -d -1 -p ACK -e 38 -c 2 -a 0 -i 0 -k MAC
+ -t 0.517040887 -s 2 -d -1 -p RTS -e 44 -c 2 -a 0 -i 0 -k MAC 
- -t 0.517040887 -s 2 -d -1 -p RTS -e 44 -c 2 -a 0 -i 0 -k MAC
h -t 0.517040887 -s 2 -d -1 -p RTS -e 44 -c 2 -a 0 -i 0 -k MAC
r -t 0.517393082 -s 3 -d -1 -p RTS -e 44 -c 2 -a 0 -i 0 -k MAC
+ -t 0.517403082 -s 3 -d -1 -p CTS -e 38 -c 2 -a 0 -i 0 -k MAC 
- -t 0.517403082 -s 3 -d -1 -p CTS -e 38 -c 2 -a 0 -i 0 -k MAC
h -t 0.517403082 -s 3 -d -1 -p CTS -e 38 -c 2 -a 0 -i 0 -k MAC
r -t 0.517707276 -s 2 -d -1 -p CTS -e 38 -c 2 -a 0 -i 0 -k MAC
+ -t 0.517717276 -s 2 -d 3 -p cbr -e 288 -c 2 -a 0 -i 4 -k MAC 
- -t 0.517717276 -s 2 -d 3 -p cbr -e 288 -c 2 -a 0 -i 4 -k MAC
h -t 0.517717276 -s 2 -d 3 -p cbr -e 288 -c 2 -a 0 -i 4 -k MAC
+ -t 0.518750000 -s 2 -d -1 -p cbr -e 210 -c 2 -a 0 -i 5 -k AGT 
- -t 0.518750000 -s 2 -d -1 -p cbr -e 210 -c 2 -a 0 -i 5 -k AGT
h -t 0.518750000 -s 2 -d -1 -p cbr -e 210 -c 2 -a 0 -i 5 -k AGT
+ -t 0.518750000 -s 2 -d 3 -p cbr -e 230 -c 2 -a 0 -i 5 -k RTR 
- -t 0.518750000 -s 2 -d 3 -p cbr -e 230 -c 2 -a 0 -i 5 -k RTR
h -t 0.518750000 -s 2 -d 3 -p cbr -e 230 -c 2 -a 0 -i 5 -k RTR
r -t 0.520021470 -s 3 -d 3 -p cbr -e 230 -c 2 -a 0 -i 4 -k MAC
+ -t 0.520031470 -s 3 -d -1 -p ACK -e 38 -c 2 -a 0 -i 0 -k MAC 
- -t 0.520031470 -s 3 -d -1 -p ACK -e 38 -c 2 -a 0 -i 0 -k MAC
h -t 0.520031470 -s 3 -d -1 -p ACK -e 38 -c 2 -a 0 -i 0 -k MAC
r -t 0.520046470 -s 3 -d 3 -p cbr -e 230 -c 2 -a 0 -i 4 -k AGT
r -t 0.520335665 -s 2 -d -1 -p ACK -e 38 -c 2 -a 0 -i 0 -k MAC
+ -t 0.520625665 -s 2 -d -1 -p RTS -e 44 -c 2 -a 0 -i 0 -k MAC 
- -t 0.520625665 -s 2 -d -1 -p RTS -e 44 -c 2 -a 0 -i 0 -k MAC
h -t 0.520625665 -s 2 -d -1 -p RTS -e 44 -c 2 -a 0 -i 0 -k MAC
r -t 0.520977859 -s 3 -d -1 -p RTS -e 44 -c 2 -a 0 -i 0 -k MAC
+ -t 0.520987859 -s 3 -d -1 -p CTS -e 38 -c 2 -a 0 -i 0 -k MAC 
- -t 0.520987859 -s 3 -d -1 -p CTS -e 38 -c 2 -a 0 -i 0 -k MAC
h -t 0.520987859 -s 3 -d -1 -p CTS -e 38 -c 2 -a 0 -i 0 -k MAC
r -t 0.521292053 -s 2 -d -1 -p CTS -e 38 -c 2 -a 0 -i 0 -k MAC
+ -t 0.521302053 -s 2 -d 3 -p cbr -e 288 -c 2 -a 0 -i 1 -k MAC 
- -t 0.521302053 -s 2 -d 3 -p cbr -e 288 -c 2 -a 0 -i 1 -k MAC
h -t 0.521302053 -s 2 -d 3 -p cbr -e 288 -c 2 -a 0 -i 1 -k MAC
+ -t 0.522500000 -s 2 -d -1 -p cbr -e 210 -c 2 -a 0 -i 6 -k AGT 
- -t 0.522500000 -s 2 -d -1 -p cbr -e 210 -c 2 -a 0 -i 6 -k AGT
h -t 0.522500000 -s 2 -d -1 -p cbr -e 210 -c 2 -a 0 -i 6 -k AGT
+ -t 0.522500000 -s 2 -d 3 -p cbr -e 230 -c 2 -a 0 -i 6 -k RTR 
- -t 0.522500000 -s 2 -d 3 -p cbr -e 230 -c 2 -a 0 -i 6 -k RTR
h -t 0.522500000 -s 2 -d 3 -p cbr -e 230 -c 2 -a 0 -i 6 -k RTR
r -t 0.523606248 -s 3 -d 3 -p cbr -e 230 -c 2 -a 0 -i 1 -k MAC
+ -t 0.523616248 -s 3 -d -1 -p ACK -e 38 -c 2 -a 0 -i 0 -k MAC 
- -t 0.523616248 -s 3 -d -1 -p ACK -e 38 -c 2 -a 0 -i 0 -k MAC
h -t 0.523616248 -s 3 -d -1 -p ACK -e 38 -c 2 -a 0 -i 0 -k MAC
r -t 0.523631248 -s 3 -d 3 -p cbr -e 230 -c 2 -a 0 -i 1 -k AGT
r -t 0.523920442 -s 2 -d -1 -p ACK -e 38 -c 2 -a 0 -i 0 -k MAC
+ -t 0.524010442 -s 2 -d -1 -p RTS -e 44 -c 2 -a 0 -i 0 -k MAC 
- -t 0.524010442 -s 2 -d -1 -p RTS -e 44 -c 2 -a 0 -i 0 -k MAC
h -t 0.524010442 -s 2 -d -1 -p RTS -e 44 -c 2 -a 0 -i 0 -k MAC
r -t 0.524362637 -s 3 -d -1 -p RTS -e 44 -c 2 -a 0 -i 0 -k MAC
+ -t 0.524372637 -s 3 -d -1 -p CTS -e 38 -c 2 -a 0 -i 0 -k MAC 
- -t 0.524372637 -s 3 -d -1 -p CTS -e 38 -c 2 -a 0 -i 0 -k MAC
h -t 0.524372637 -s 3 -d -1 -p CTS -e 38 -c 2 -a 0 -i 0 -k MAC
r -t 0.524676831 -s 2 -d -1 -p CTS -e 38 -c 2 -a 0 -i 0 -k MAC
+ -t 0.524686831 -s 2 -d 3 -p cbr -e 288 -c 2 -a 0 -i 5 -k MAC 
- -t 0.524686831 -s 2 -d 3 -p cbr -e 288 -c 2 -a 0 -i 5 -k MAC
h -t 0.524686831 -s 2 -d 3 -p cbr -e 288 -c 2 -a 0 -i 5 -k MAC
+ -t 0.526250000 -s 2 -d -1 -p cbr -e 210 -c 2 -a 0 -i 7 -k AGT 
- -t 0.526250000 -s 2 -d -1 -p cbr -e 210 -c 2 -a 0 -i 7 -k AGT
h -t 0.526250000 -s 2 -d -1 -p cbr -e 210 -c 2 -a 0 -i 7 -k AGT
+ -t 0.526250000 -s 2 -d 3 -p cbr -e 230 -c 2 -a 0 -i 7 -k RTR 
- -t 0.526250000 -s 2 -d 3 -p cbr -e 230 -c 2 -a 0 -i 7 -k RTR
h -t 0.526250000 -s 2 -d 3 -p cbr -e 230 -c 2 -a 0 -i 7 -k RTR
r -t 0.526991025 -s 3 -d 3 -p cbr -e 230 -c 2 -a 0 -i 5 -k MAC
+ -t 0.527001025 -s 3 -d -1 -p ACK -e 38 -c 2 -a 0 -i 0 -k MAC 
- -t 0.527001025 -s 3 -d -1 -p ACK -e 38 -c 2 -a 0 -i 0 -k MAC
h -t 0.527001025 -s 3 -d -1 -p ACK -e 38 -c 2 -a 0 -i 0 -k MAC
r -t 0.527016025 -s 3 -d 3 -p cbr -e 230 -c 2 -a 0 -i 5 -k AGT
r -t 0.527305220 -s 2 -d -1 -p ACK -e 38 -c 2 -a 0 -i 0 -k MAC
+ -t 0.527895220 -s 2 -d -1 -p RTS -e 44 -c 2 -a 0 -i 0 -k MAC 
- -t 0.527895220 -s 2 -d -1 -p RTS -e 44 -c 2 -a 0 -i 0 -k MAC
h -t 0.527895220 -s 2 -d -1 -p RTS -e 44 -c 2 -a 0 -i 0 -k MAC
r -t 0.528247414 -s 3 -d -1 -p RTS -e 44 -c 2 -a 0 -i 0 -k MAC
+ -t 0.528257414 -s 3 -d -1 -p CTS -e 38 -c 2 -a 0 -i 0 -k MAC 
- -t 0.528257414 -s 3 -d -1 -p CTS -e 38 -c 2 -a 0 -i 0 -k MAC
h -t 0.528257414 -s 3 -d -1 -p CTS -e 38 -c 2 -a 0 -i 0 -k MAC
r -t 0.528561608 -s 2 -d -1 -p CTS -e 38 -c 2 -a 0 -i 0 -k MAC
+ -t 0.528571608 -s 2 -d 3 -p cbr -e 288 -c 2 -a 0 -i 6 -k MAC 
- -t 0.528571608 -s 2 -d 3 -p cbr -e 288 -c 2 -a 0 -i 6 -k MAC
h -t 0.528571608 -s 2 -d 3 -p cbr -e 288 -c 2 -a 0 -i 6 -k MAC
+ -t 0.530000000 -s 2 -d -1 -p cbr -e 210 -c 2 -a 0 -i 8 -k AGT 
- -t 0.530000000 -s 2 -d -1 -p cbr -e 210 -c 2 -a 0 -i 8 -k AGT
h -t 0.530000000 -s 2 -d -1 -p cbr -e 210 -c 2 -a 0 -i 8 -k AGT
+ -t 0.530000000 -s 2 -d 3 -p cbr -e 230 -c 2 -a 0 -i 8 -k RTR 
- -t 0.530000000 -s 2 -d 3 -p cbr -e 230 -c 2 -a 0 -i 8 -k RTR
h -t 0.530000000 -s 2 -d 3 -p cbr -e 230 -c 2 -a 0 -i 8 -k RTR
r -t 0.530875803 -s 3 -d 3 -p cbr -e 230 -c 2 -a 0 -i 6 -k MAC
+ -t 0.530885803 -s 3 -d -1 -p ACK -e 38 -c 2 -a 0 -i 0 -k MAC 
- -t 0.530885803 -s 3 -d -1 -p ACK -e 38 -c 2 -a 0 -i 0 -k MAC
h -t 0.530885803 -s 3 -d -1 -p ACK -e 38 -c 2 -a 0 -i 0 -k MAC
r -t 0.530900803 -s 3 -d 3 -p cbr -e 230 -c 2 -a 0 -i 6 -k AGT
r -t 0.531189997 -s 2 -d -1 -p ACK -e 38 -c 2 -a 0 -i 0 -k MAC
+ -t 0.531399997 -s 2 -d -1 -p RTS -e 44 -c 2 -a 0 -i 0 -k MAC 
- -t 0.531399997 -s 2 -d -1 -p RTS -e 44 -c 2 -a 0 -i 0 -k MAC
h -t 0.531399997 -s 2 -d -1 -p RTS -e 44 -c 2 -a 0 -i 0 -k MAC
r -t 0.531752192 -s 3 -d -1 -p RTS -e 44 -c 2 -a 0 -i 0 -k MAC
+ -t 0.531762192 -s 3 -d -1 -p CTS -e 38 -c 2 -a 0 -i 0 -k MAC 
- -t 0.531762192 -s 3 -d -1 -p CTS -e 38 -c 2 -a 0 -i 0 -k MAC
h -t 0.531762192 -s 3 -d -1 -p CTS -e 38 -c 2 -a 0 -i 0 -k MAC
r -t 0.532066386 -s 2 -d -1 -p CTS -e 38 -c 2 -a 0 -i 0 -k MAC
+ -t 0.532076386 -s 2 -d 3 -p cbr -e 288 -c 2 -a 0 -i 7 -k MAC 
- -t 0.532076386 -s 2 -d 3 -p cbr -e 288 -c 2 -a 0 -i 7 -k MAC
h -t 0.532076386 -s 2 -d 3 -p cbr -e 288 -c 2 -a 0 -i 7 -k MAC
+ -t 0.533750000 -s 2 -d -1 -p cbr -e 210 -c 2 -a 0 -i 9 -k AGT 
- -t 0.533750000 -s 2 -d -1 -p cbr -e 210 -c 2 -a 0 -i 9 -k AGT
h -t 0.533750000 -s 2 -d -1 -p cbr -e 210 -c 2 -a 0 -i 9 -k AGT
+ -t 0.533750000 -s 2 -d 3 -p cbr -e 230 -c 2 -a 0 -i 9 -k RTR 
- -t 0.533750000 -s 2 -d 3 -p cbr -e 230 -c 2 -a 0 -i 9 -k RTR
h -t 0.533750000 -s 2 -d 3 -p cbr -e 230 -c 2 -a 0 -i 9 -k RTR
r -t 0.534380580 -s 3 -d 3 -p cbr -e 230 -c 2 -a 0 -i 7 -k MAC
+ -t 0.534390580 -s 3 -d -1 -p ACK -e 38 -c 2 -a 0 -i 0 -k MAC 
- -t 0.534390580 -s 3 -d -1 -p ACK -e 38 -c 2 -a 0 -i 0 -k MAC
h -t 0.534390580 -s 3 -d -1 -p ACK -e 38 -c 2 -a 0 -i 0 -k MAC
r -t 0.534405580 -s 3 -d 3 -p cbr -e 230 -c 2 -a 0 -i 7 -k AGT
r -t 0.534694775 -s 2 -d -1 -p ACK -e 38 -c 2 -a 0 -i 0 -k MAC
+ -t 0.535104775 -s 2 -d -1 -p RTS -e 44 -c 2 -a 0 -i 0 -k MAC 
- -t 0.535104775 -s 2 -d -1 -p RTS -e 44 -c 2 -a 0 -i 0 -k MAC
h -t 0.535104775 -s 2 -d -1 -p RTS -e 44 -c 2 -a 0 -i 0 -k MAC
r -t 0.535456969 -s 3 -d -1 -p RTS -e 44 -c 2 -a 0 -i 0 -k MAC
+ -t 0.535466969 -s 3 -d -1 -p CTS -e 38 -c 2 -a 0 -i 0 -k MAC 
- -t 0.535466969 -s 3 -d -1 -p CTS -e 38 -c 2 -a 0 -i 0 -k MAC
h -t 0.535466969 -s 3 -d -1 -p CTS -e 38 -c 2 -a 0 -i 0 -k MAC
r -t 0.535771163 -s 2 -d -1 -p CTS -e 38 -c 2 -a 0 -i 0 -k MAC
+ -t 0.535781163 -s 2 -d 3 -p cbr -e 288 -c 2 -a 0 -i 8 -k MAC 
- -t 0.535781163 -s 2 -d 3 -p cbr -e 288 -c 2 -a 0 -i 8 -k MAC
h -t 0.535781163 -s 2 -d 3 -p cbr -e 288 -c 2 -a 0 -i 8 -k MAC
+ -t 0.537500000 -s 2 -d -1 -p cbr -e 210 -c 2 -a 0 -i 10 -k AGT 
- -t 0.537500000 -s 2 -d -1 -p cbr -e 210 -c 2 -a 0 -i 10 -k AGT
h -t 0.537500000 -s 2 -d -1 -p cbr -e 210 -c 2 -a 0 -i 10 -k AGT
+ -t 0.537500000 -s 2 -d 3 -p cbr -e 230 -c 2 -a 0 -i 10 -k RTR 
- -t 0.537500000 -s 2 -d 3 -p cbr -e 230 -c 2 -a 0 -i 10 -k RTR
h -t 0.537500000 -s 2 -d 3 -p cbr -e 230 -c 2 -a 0 -i 10 -k RTR
r -t 0.538085358 -s 3 -d 3 -p cbr -e 230 -c 2 -a 0 -i 8 -k MAC
+ -t 0.538095358 -s 3 -d -1 -p ACK -e 38 -c 2 -a 0 -i 0 -k MAC 
- -t 0.538095358 -s 3 -d -1 -p ACK -e 38 -c 2 -a 0 -i 0 -k MAC
h -t 0.538095358 -s 3 -d -1 -p ACK -e 38 -c 2 -a 0 -i 0 -k MAC
r -t 0.538110358 -s 3 -d 3 -p cbr -e 230 -c 2 -a 0 -i 8 -k AGT
r -t 0.538399552 -s 2 -d -1 -p ACK -e 38 -c 2 -a 0 -i 0 -k MAC
+ -t 0.538689552 -s 2 -d -1 -p RTS -e 44 -c 2 -a 0 -i 0 -k MAC 
- -t 0.538689552 -s 2 -d -1 -p RTS -e 44 -c 2 -a 0 -i 0 -k MAC
h -t 0.538689552 -s 2 -d -1 -p RTS -e 44 -c 2 -a 0 -i 0 -k MAC
r -t 0.539041746 -s 3 -d -1 -p RTS -e 44 -c 2 -a 0 -i 0 -k MAC
+ -t 0.539051746 -s 3 -d -1 -p CTS -e 38 -c 2 -a 0 -i 0 -k MAC 
- -t 0.539051746 -s 3 -d -1 -p CTS -e 38 -c 2 -a 0 -i 0 -k MAC
h -t 0.539051746 -s 3 -d -1 -p CTS -e 38 -c 2 -a 0 -i 0 -k MAC
r -t 0.539355941 -s 2 -d -1 -p CTS -e 38 -c 2 -a 0 -i 0 -k MAC
+ -t 0.539365941 -s 2 -d 3 -p cbr -e 288 -c 2 -a 0 -i 9 -k MAC 
- -t 0.539365941 -s 2 -d 3 -p cbr -e 288 -c 2 -a 0 -i 9 -k MAC
h -t 0.539365941 -s 2 -d 3 -p cbr -e 288 -c 2 -a 0 -i 9 -k MAC
+ -t 0.541250000 -s 2 -d -1 -p cbr -e 210 -c 2 -a 0 -i 11 -k AGT 
- -t 0.541250000 -s 2 -d -1 -p cbr -e 210 -c 2 -a 0 -i 11 -k AGT
h -t 0.541250000 -s 2 -d -1 -p cbr -e 210 -c 2 -a 0 -i 11 -k AGT
+ -t 0.541250000 -s 2 -d 3 -p cbr -e 230 -c 2 -a 0 -i 11 -k RTR 
- -t 0.541250000 -s 2 -d 3 -p cbr -e 230 -c 2 -a 0 -i 11 -k RTR
h -t 0.541250000 -s 2 -d 3 -p cbr -e 230 -c 2 -a 0 -i 11 -k RTR
r -t 0.541670135 -s 3 -d 3 -p cbr -e 230 -c 2 -a 0 -i 9 -k MAC
+ -t 0.541680135 -s 3 -d -1 -p ACK -e 38 -c 2 -a 0 -i 0 -k MAC 
- -t 0.541680135 -s 3 -d -1 -p ACK -e 38 -c 2 -a 0 -i 0 -k MAC
h -t 0.541680135 -s 3 -d -1 -p ACK -e 38 -c 2 -a 0 -i 0 -k MAC
r -t 0.541695135 -s 3 -d 3 -p cbr -e 230 -c 2 -a 0 -i 9 -k AGT
r -t 0.541984330 -s 2 -d -1 -p ACK -e 38 -c 2 -a 0 -i 0 -k MAC
+ -t 0.542194330 -s 2 -d -1 -p RTS -e 44 -c 2 -a 0 -i 0 -k MAC 
- -t 0.542194330 -s 2 -d -1 -p RTS -e 44 -c 2 -a 0 -i 0 -k MAC
h -t 0.542194330 -s 2 -d -1 -p RTS -e 44 -c 2 -a 0 -i 0 -k MAC
r -t 0.542546524 -s 3 -d -1 -p RTS -e 44 -c 2 -a 0 -i 0 -k MAC
+ -t 0.542556524 -s 3 -d -1 -p CTS -e 38 -c 2 -a 0 -i 0 -k MAC 
- -t 0.542556524 -s 3 -d -1 -p CTS -e 38 -c 2 -a 0 -i 0 -k MAC
h -t 0.542556524 -s 3 -d -1 -p CTS -e 38 -c 2 -a 0 -i 0 -k MAC
r -t 0.542860718 -s 2 -d -1 -p CTS -e 38 -c 2 -a 0 -i 0 -k MAC
+ -t 0.542870718 -s 2 -d 3 -p cbr -e 288 -c 2 -a 0 -i 10 -k MAC 
- -t 0.542870718 -s 2 -d 3 -p cbr -e 288 -c 2 -a 0 -i 10 -k MAC
h -t 0.542870718 -s 2 -d 3 -p cbr -e 288 -c 2 -a 0 -i 10 -k MAC
+ -t 0.545000000 -s 2 -d -1 -p cbr -e 210 -c 2 -a 0 -i 12 -k AGT 
- -t 0.545000000 -s 2 -d -1 -p cbr -e 210 -c 2 -a 0 -i 12 -k AGT
h -t 0.545000000 -s 2 -d -1 -p cbr -e 210 -c 2 -a 0 -i 12 -k AGT
+ -t 0.545000000 -s 2 -d 3 -p cbr -e 230 -c 2 -a 0 -i 12 -k RTR 
- -t 0.545000000 -s 2 -d 3 -p cbr -e 230 -c 2 -a 0 -i 12 -k RTR
h -t 0.545000000 -s 2 -d 3 -p cbr -e 230 -c 2 -a 0 -i 12 -k RTR
r -t 0.545174913 -s 3 -d 3 -p cbr -e 230 -c 2 -a 0 -i 10 -k MAC
+ -t 0.545184913 -s 3 -d -1 -p ACK -e 38 -c 2 -a 0 -i 0 -k MAC 
- -t 0.545184913 -s 3 -d -1 -p ACK -e 38 -c 2 -a 0 -i 0 -k MAC
h -t 0.545184913 -s 3 -d -1 -p ACK -e 38 -c 2 -a 0 -i 0 -k MAC
r -t 0.545199913 -s 3 -d 3 -p cbr -e 230 -c 2 -a 0 -i 10 -k AGT
r -t 0.545489107 -s 2 -d -1 -p ACK -e 38 -c 2 -a 0 -i 0 -k MAC
+ -t 0.546019107 -s 2 -d -1 -p RTS -e 44 -c 2 -a 0 -i 0 -k MAC 
- -t 0.546019107 -s 2 -d -1 -p RTS -e 44 -c 2 -a 0 -i 0 -k MAC
h -t 0.546019107 -s 2 -d -1 -p RTS -e 44 -c 2 -a 0 -i 0 -k MAC
r -t 0.546371301 -s 3 -d -1 -p RTS -e 44 -c 2 -a 0 -i 0 -k MAC
+ -t 0.546381301 -s 3 -d -1 -p CTS -e 38 -c 2 -a 0 -i 0 -k MAC 
- -t 0.546381301 -s 3 -d -1 -p CTS -e 38 -c 2 -a 0 -i 0 -k MAC
h -t 0.546381301 -s 3 -d -1 -p CTS -e 38 -c 2 -a 0 -i 0 -k MAC
r -t 0.546685496 -s 2 -d -1 -p CTS -e 38 -c 2 -a 0 -i 0 -k MAC
+ -t 0.546695496 -s 2 -d 3 -p cbr -e 288 -c 2 -a 0 -i 11 -k MAC 
- -t 0.546695496 -s 2 -d 3 -p cbr -e 288 -c 2 -a 0 -i 11 -k MAC
h -t 0.546695496 -s 2 -d 3 -p cbr -e 288 -c 2 -a 0 -i 11 -k MAC
+ -t 0.548750000 -s 2 -d -1 -p cbr -e 210 -c 2 -a 0 -i 13 -k AGT 
- -t 0.548750000 -s 2 -d -1 -p cbr -e 210 -c 2 -a 0 -i 13 -k AGT
h -t 0.548750000 -s 2 -d -1 -p cbr -e 210 -c 2 -a 0 -i 13 -k AGT
+ -t 0.548750000 -s 2 -d 3 -p cbr -e 230 -c 2 -a 0 -i 13 -k RTR 
- -t 0.548750000 -s 2 -d 3 -p cbr -e 230 -c 2 -a 0 -i 13 -k RTR
h -t 0.548750000 -s 2 -d 3 -p cbr -e 230 -c 2 -a 0 -i 13 -k RTR
r -t 0.548999690 -s 3 -d 3 -p cbr -e 230 -c 2 -a 0 -i 11 -k MAC
+ -t 0.549009690 -s 3 -d -1 -p ACK -e 38 -c 2 -a 0 -i 0 -k MAC 
- -t 0.549009690 -s 3 -d -1 -p ACK -e 38 -c 2 -a 0 -i 0 -k MAC
h -t 0.549009690 -s 3 -d -1 -p ACK -e 38 -c 2 -a 0 -i 0 -k MAC
r -t 0.549024690 -s 3 -d 3 -p cbr -e 230 -c 2 -a 0 -i 11 -k AGT
r -t 0.549313884 -s 2 -d -1 -p ACK -e 38 -c 2 -a 0 -i 0 -k MAC
+ -t 0.549703884 -s 2 -d -1 -p RTS -e 44 -c 2 -a 0 -i 0 -k MAC 
- -t 0.549703884 -s 2 -d -1 -p RTS -e 44 -c 2 -a 0 -i 0 -k MAC
h -t 0.549703884 -s 2 -d -1 -p RTS -e 44 -c 2 -a 0 -i 0 -k MAC
r -t 0.550056079 -s 3 -d -1 -p RTS -e 44 -c 2 -a 0 -i 0 -k MAC
+ -t 0.550066079 -s 3 -d -1 -p CTS -e 38 -c 2 -a 0 -i 0 -k MAC 
- -t 0.550066079 -s 3 -d -1 -p CTS -e 38 -c 2 -a 0 -i 0 -k MAC
h -t 0.550066079 -s 3 -d -1 -p CTS -e 38 -c 2 -a 0 -i 0 -k MAC
r -t 0.550370273 -s 2 -d -1 -p CTS -e 38 -c 2 -a 0 -i 0 -k MAC
+ -t 0.550380273 -s 2 -d 3 -p cbr -e 288 -c 2 -a 0 -i 12 -k MAC 
- -t 0.550380273 -s 2 -d 3 -p cbr -e 288 -c 2 -a 0 -i 12 -k MAC
h -t 0.550380273 -s 2 -d 3 -p cbr -e 288 -c 2 -a 0 -i 12 -k MAC
+ -t 0.552500000 -s 2 -d -1 -p cbr -e 210 -c 2 -a 0 -i 14 -k AGT 
- -t 0.552500000 -s 2 -d -1 -p cbr -e 210 -c 2 -a 0 -i 14 -k AGT
h -t 0.552500000 -s 2 -d -1 -p cbr -e 210 -c 2 -a 0 -i 14 -k AGT
+ -t 0.552500000 -s 2 -d 3 -p cbr -e 230 -c 2 -a 0 -i 14 -k RTR 
- -t 0.552500000 -s 2 -d 3 -p cbr -e 230 -c 2 -a 0 -i 14 -k RTR
h -t 0.552500000 -s 2 -d 3 -p cbr -e 230 -c 2 -a 0 -i 14 -k RTR
r -t 0.552684468 -s 3 -d 3 -p cbr -e 230 -c 2 -a 0 -i 12 -k MAC
+ -t 0.552694468 -s 3 -d -1 -p ACK -e 38 -c 2 -a 0 -i 0 -k MAC 
- -t 0.552694468 -s 3 -d -1 -p ACK -e 38 -c 2 -a 0 -i 0 -k MAC
h -t 0.552694468 -s 3 -d -1 -p ACK -e 38 -c 2 -a 0 -i 0 -k MAC
r -t 0.552709468 -s 3 -d 3 -p cbr -e 230 -c 2 -a 0 -i 12 -k AGT
r -t 0.552998662 -s 2 -d -1 -p ACK -e 38 -c 2 -a 0 -i 0 -k MAC
+ -t 0.553368662 -s 2 -d -1 -p RTS -e 44 -c 2 -a 0 -i 0 -k MAC 
- -t 0.553368662 -s 2 -d -1 -p RTS -e 44 -c 2 -a 0 -i 0 -k MAC
h -t 0.553368662 -s 2 -d -1 -p RTS -e 44 -c 2 -a 0 -i 0 -k MAC
r -t 0.553720856 -s 3 -d -1 -p RTS -e 44 -c 2 -a 0 -i 0 -k MAC
+ -t 0.553730856 -s 3 -d -1 -p CTS -e 38 -c 2 -a 0 -i 0 -k MAC 
- -t 0.553730856 -s 3 -d -1 -p CTS -e 38 -c 2 -a 0 -i 0 -k MAC
h -t 0.553730856 -s 3 -d -1 -p CTS -e 38 -c 2 -a 0 -i 0 -k MAC
r -t 0.554035051 -s 2 -d -1 -p CTS -e 38 -c 2 -a 0 -i 0 -k MAC
+ -t 0.554045051 -s 2 -d 3 -p cbr -e 288 -c 2 -a 0 -i 13 -k MAC 
- -t 0.554045051 -s 2 -d 3 -p cbr -e 288 -c 2 -a 0 -i 13 -k MAC
h -t 0.554045051 -s 2 -d 3 -p cbr -e 288 -c 2 -a 0 -i 13 -k MAC
+ -t 0.556250000 -s 2 -d -1 -p cbr -e 210 -c 2 -a 0 -i 15 -k AGT 
- -t 0.556250000 -s 2 -d -1 -p cbr -e 210 -c 2 -a 0 -i 15 -k AGT
h -t 0.556250000 -s 2 -d -1 -p cbr -e 210 -c 2 -a 0 -i 15 -k AGT
+ -t 0.556250000 -s 2 -d 3 -p cbr -e 230 -c 2 -a 0 -i 15 -k RTR 
- -t 0.556250000 -s 2 -d 3 -p cbr -e 230 -c 2 -a 0 -i 15 -k RTR
h -t 0.556250000 -s 2 -d 3 -p cbr -e 230 -c 2 -a 0 -i 15 -k RTR
r -t 0.556349245 -s 3 -d 3 -p cbr -e 230 -c 2 -a 0 -i 13 -k MAC
+ -t 0.556359245 -s 3 -d -1 -p ACK -e 38 -c 2 -a 0 -i 0 -k MAC 
- -t 0.556359245 -s 3 -d -1 -p ACK -e 38 -c 2 -a 0 -i 0 -k MAC
h -t 0.556359245 -s 3 -d -1 -p ACK -e 38 -c 2 -a 0 -i 0 -k MAC
r -t 0.556374245 -s 3 -d 3 -p cbr -e 230 -c 2 -a 0 -i 13 -k AGT
r -t 0.556663439 -s 2 -d -1 -p ACK -e 38 -c 2 -a 0 -i 0 -k MAC
+ -t 0.556913439 -s 2 -d -1 -p RTS -e 44 -c 2 -a 0 -i 0 -k MAC 
- -t 0.556913439 -s 2 -d -1 -p RTS -e 44 -c 2 -a 0 -i 0 -k MAC
h -t 0.556913439 -s 2 -d -1 -p RTS -e 44 -c 2 -a 0 -i 0 -k MAC
r -t 0.557265634 -s 3 -d -1 -p RTS -e 44 -c 2 -a 0 -i 0 -k MAC
+ -t 0.557275634 -s 3 -d -1 -p CTS -e 38 -c 2 -a 0 -i 0 -k MAC 
- -t 0.557275634 -s 3 -d -1 -p CTS -e 38 -c 2 -a 0 -i 0 -k MAC
h -t 0.557275634 -s 3 -d -1 -p CTS -e 38 -c 2 -a 0 -i 0 -k MAC
r -t 0.557579828 -s 2 -d -1 -p CTS -e 38 -c 2 -a 0 -i 0 -k MAC
+ -t 0.557589828 -s 2 -d 3 -p cbr -e 288 -c 2 -a 0 -i 14 -k MAC 
- -t 0.557589828 -s 2 -d 3 -p cbr -e 288 -c 2 -a 0 -i 14 -k MAC
h -t 0.557589828 -s 2 -d 3 -p cbr -e 288 -c 2 -a 0 -i 14 -k MAC
r -t 0.559894022 -s 3 -d 3 -p cbr -e 230 -c 2 -a 0 -i 14 -k MAC
+ -t 0.559904022 -s 3 -d -1 -p ACK -e 38 -c 2 -a 0 -i 0 -k MAC 
- -t 0.559904022 -s 3 -d -1 -p ACK -e 38 -c 2 -a 0 -i 0 -k MAC
h -t 0.559904022 -s 3 -d -1 -p ACK -e 38 -c 2 -a 0 -i 0 -k MAC
r -t 0.559919022 -s 3 -d 3 -p cbr -e 230 -c 2 -a 0 -i 14 -k AGT
+ -t 0.560000000 -s 2 -d -1 -p cbr -e 210 -c 2 -a 0 -i 16 -k AGT 
- -t 0.560000000 -s 2 -d -1 -p cbr -e 210 -c 2 -a 0 -i 16 -k AGT
h -t 0.560000000 -s 2 -d -1 -p cbr -e 210 -c 2 -a 0 -i 16 -k AGT
+ -t 0.560000000 -s 2 -d 3 -p cbr -e 230 -c 2 -a 0 -i 16 -k RTR 
- -t 0.560000000 -s 2 -d 3 -p cbr -e 230 -c 2 -a 0 -i 16 -k RTR
h -t 0.560000000 -s 2 -d 3 -p cbr -e 230 -c 2 -a 0 -i 16 -k RTR
r -t 0.560208217 -s 2 -d -1 -p ACK -e 38 -c 2 -a 0 -i 0 -k MAC
+ -t 0.560478217 -s 2 -d -1 -p RTS -e 44 -c 2 -a 0 -i 0 -k MAC 
- -t 0.560478217 -s 2 -d -1 -p RTS -e 44 -c 2 -a 0 -i 0 -k MAC
h -t 0.560478217 -s 2 -d -1 -p RTS -e 44 -c 2 -a 0 -i 0 -k MAC
r -t 0.560830411 -s 3 -d -1 -p RTS -e 44 -c 2 -a 0 -i 0 -k MAC
+ -t 0.560840411 -s 3 -d -1 -p CTS -e 38 -c 2 -a 0 -i 0 -k MAC 
- -t 0.560840411 -s 3 -d -1 -p CTS -e 38 -c 2 -a 0 -i 0 -k MAC
h -t 0.560840411 -s 3 -d -1 -p CTS -e 38 -c 2 -a 0 -i 0 -k MAC
r -t 0.561144606 -s 2 -d -1 -p CTS -e 38 -c 2 -a 0 -i 0 -k MAC
+ -t 0.561154606 -s 2 -d 3 -p cbr -e 288 -c 2 -a 0 -i 15 -k MAC 
- -t 0.561154606 -s 2 -d 3 -p cbr -e 288 -c 2 -a 0 -i 15 -k MAC
h -t 0.561154606 -s 2 -d 3 -p cbr -e 288 -c 2 -a 0 -i 15 -k MAC
r -t 0.563458800 -s 3 -d 3 -p cbr -e 230 -c 2 -a 0 -i 15 -k MAC
+ -t 0.563468800 -s 3 -d -1 -p ACK -e 38 -c 2 -a 0 -i 0 -k MAC 
- -t 0.563468800 -s 3 -d -1 -p ACK -e 38 -c 2 -a 0 -i 0 -k MAC
h -t 0.563468800 -s 3 -d -1 -p ACK -e 38 -c 2 -a 0 -i 0 -k MAC
r -t 0.563483800 -s 3 -d 3 -p cbr -e 230 -c 2 -a 0 -i 15 -k AGT
+ -t 0.563750000 -s 2 -d -1 -p cbr -e 210 -c 2 -a 0 -i 17 -k AGT 
- -t 0.563750000 -s 2 -d -1 -p cbr -e 210 -c 2 -a 0 -i 17 -k AGT
h -t 0.563750000 -s 2 -d -1 -p cbr -e 210 -c 2 -a 0 -i 17 -k AGT
+ -t 0.563750000 -s 2 -d 3 -p cbr -e 230 -c 2 -a 0 -i 17 -k RTR 
- -t 0.563750000 -s 2 -d 3 -p cbr -e 230 -c 2 -a 0 -i 17 -k RTR
h -t 0.563750000 -s 2 -d 3 -p cbr -e 230 -c 2 -a 0 -i 17 -k RTR
r -t 0.563772994 -s 2 -d -1 -p ACK -e 38 -c 2 -a 0 -i 0 -k MAC
+ -t 0.563842994 -s 2 -d -1 -p RTS -e 44 -c 2 -a 0 -i 0 -k MAC 
- -t 0.563842994 -s 2 -d -1 -p RTS -e 44 -c 2 -a 0 -i 0 -k MAC
h -t 0.563842994 -s 2 -d -1 -p RTS -e 44 -c 2 -a 0 -i 0 -k MAC
r -t 0.564195189 -s 3 -d -1 -p RTS -e 44 -c 2 -a 0 -i 0 -k MAC
+ -t 0.564205189 -s 3 -d -1 -p CTS -e 38 -c 2 -a 0 -i 0 -k MAC 
- -t 0.564205189 -s 3 -d -1 -p CTS -e 38 -c 2 -a 0 -i 0 -k MAC
h -t 0.564205189 -s 3 -d -1 -p CTS -e 38 -c 2 -a 0 -i 0 -k MAC
r -t 0.564509383 -s 2 -d -1 -p CTS -e 38 -c 2 -a 0 -i 0 -k MAC
+ -t 0.564519383 -s 2 -d 3 -p cbr -e 288 -c 2 -a 0 -i 16 -k MAC 
- -t 0.564519383 -s 2 -d 3 -p cbr -e 288 -c 2 -a 0 -i 16 -k MAC
h -t 0.564519383 -s 2 -d 3 -p cbr -e 288 -c 2 -a 0 -i 16 -k MAC
r -t 0.566823577 -s 3 -d 3 -p cbr -e 230 -c 2 -a 0 -i 16 -k MAC
+ -t 0.566833577 -s 3 -d -1 -p ACK -e 38 -c 2 -a 0 -i 0 -k MAC 
- -t 0.566833577 -s 3 -d -1 -p ACK -e 38 -c 2 -a 0 -i 0 -k MAC
h -t 0.566833577 -s 3 -d -1 -p ACK -e 38 -c 2 -a 0 -i 0 -k MAC
r -t 0.566848577 -s 3 -d 3 -p cbr -e 230 -c 2 -a 0 -i 16 -k AGT
r -t 0.567137772 -s 2 -d -1 -p ACK -e 38 -c 2 -a 0 -i 0 -k MAC
+ -t 0.567427772 -s 2 -d -1 -p RTS -e 44 -c 2 -a 0 -i 0 -k MAC 
- -t 0.567427772 -s 2 -d -1 -p RTS -e 44 -c 2 -a 0 -i 0 -k MAC
h -t 0.567427772 -s 2 -d -1 -p RTS -e 44 -c 2 -a 0 -i 0 -k MAC
+ -t 0.567500000 -s 2 -d -1 -p cbr -e 210 -c 2 -a 0 -i 18 -k AGT 
- -t 0.567500000 -s 2 -d -1 -p cbr -e 210 -c 2 -a 0 -i 18 -k AGT
h -t 0.567500000 -s 2 -d -1 -p cbr -e 210 -c 2 -a 0 -i 18 -k AGT
+ -t 0.567500000 -s 2 -d 3 -p cbr -e 230 -c 2 -a 0 -i 18 -k RTR 
- -t 0.567500000 -s 2 -d 3 -p cbr -e 230 -c 2 -a 0 -i 18 -k RTR
h -t 0.567500000 -s 2 -d 3 -p cbr -e 230 -c 2 -a 0 -i 18 -k RTR
r -t 0.567779966 -s 3 -d -1 -p RTS -e 44 -c 2 -a 0 -i 0 -k MAC
+ -t 0.567789966 -s 3 -d -1 -p CTS -e 38 -c 2 -a 0 -i 0 -k MAC 
- -t 0.567789966 -s 3 -d -1 -p CTS -e 38 -c 2 -a 0 -i 0 -k MAC
h -t 0.567789966 -s 3 -d -1 -p CTS -e 38 -c 2 -a 0 -i 0 -k MAC
r -t 0.568094160 -s 2 -d -1 -p CTS -e 38 -c 2 -a 0 -i 0 -k MAC
+ -t 0.568104160 -s 2 -d 3 -p cbr -e 288 -c 2 -a 0 -i 17 -k MAC 
- -t 0.568104160 -s 2 -d 3 -p cbr -e 288 -c 2 -a 0 -i 17 -k MAC
h -t 0.568104160 -s 2 -d 3 -p cbr -e 288 -c 2 -a 0 -i 17 -k MAC
r -t 0.570408355 -s 3 -d 3 -p cbr -e 230 -c 2 -a 0 -i 17 -k MAC
+ -t 0.570418355 -s 3 -d -1 -p ACK -e 38 -c 2 -a 0 -i 0 -k MAC 
- -t 0.570418355 -s 3 -d -1 -p ACK -e 38 -c 2 -a 0 -i 0 -k MAC