s 0.500000000 _2_ AGT  --- 0 cbr 210 [0 0 0 0] [energy 3.000000 ei 0.000 es 0.000 et 0.000 er 0.000] ------- [2:0 3:0 32 0] [0] 0 0
r 0.500000000 _2_ RTR  --- 0 cbr 210 [0 0 0 0] [energy 3.000000 ei 0.000 es 0.000 et 0.000 er 0.000] ------- [2:0 3:0 32 0] [0] 0 0
s 0.500000000 _2_ RTR  --- 0 AODV 48 [0 0 0 0] [energy 3.000000 ei 0.000 es 0.000 et 0.000 er 0.000] ------- [2:255 -1:255 30 0] [0x2 1 1 [3 0] [2 4]] (REQUEST)
s 0.500115000 _2_ MAC  --- 0 AODV 106 [0 ffffffff 2 800] [energy 3.000000 ei 0.000 es 0.000 et 0.000 er 0.000] ------- [2:255 -1:255 30 0] [0x2 1 1 [3 0] [2 4]] (REQUEST)
N -t 0.500115 -n 3 -e 2.774524
N -t 0.500116 -n 4 -e 2.774524
N -t 0.500116 -n 5 -e 2.774524
N -t 0.500116 -n 0 -e 2.774524
N -t 0.500116 -n 1 -e 2.774524
r 0.500963194 _3_ MAC  --- 0 AODV 48 [0 ffffffff 2 800] [energy 2.774524 ei 0.225 es 0.000 et 0.000 er 0.000] ------- [2:255 -1:255 30 0] [0x2 1 1 [3 0] [2 4]] (REQUEST)
r 0.500988194 _3_ RTR  --- 0 AODV 48 [0 ffffffff 2 800] [energy 2.774524 ei 0.225 es 0.000 et 0.000 er 0.000] ------- [2:255 -1:255 30 0] [0x2 1 1 [3 0] [2 4]] (REQUEST)
s 0.500988194 _3_ RTR  --- 0 AODV 44 [0 0 0 0] [energy 2.774524 ei 0.225 es 0.000 et 0.000 er 0.000] ------- [3:255 2:255 30 2] [0x4 1 [3 4] 10.000000] (REPLY)
s 0.501343194 _3_ MAC  --- 0 ARP 86 [0 ffffffff 3 806] [energy 2.774524 ei 0.225 es 0.000 et 0.000 er 0.000] ------- [REQUEST 3/3 0/2]
N -t 0.501343 -n 2 -e 2.773670
N -t 0.501344 -n 4 -e 2.774009
N -t 0.501344 -n 5 -e 2.774009
N -t 0.501344 -n 0 -e 2.774009
N -t 0.501345 -n 1 -e 2.774009
r 0.502031389 _2_ MAC  --- 0 ARP 28 [0 ffffffff 3 806] [energy 2.773670 ei 0.225 es 0.000 et 0.001 er 0.000] ------- [REQUEST 3/3 0/2]
s 0.502321389 _2_ MAC  --- 0 RTS 44 [52e 3 2 0] [energy 2.773670 ei 0.225 es 0.000 et 0.001 er 0.000] 
N -t 0.502322 -n 3 -e 2.773427
N -t 0.502322 -n 4 -e 2.773702
N -t 0.502323 -n 5 -e 2.773702
N -t 0.502323 -n 0 -e 2.773702
N -t 0.502323 -n 1 -e 2.773702
r 0.502673583 _3_ MAC  --- 0 RTS 44 [52e 3 2 0] [energy 2.773427 ei 0.225 es 0.000 et 0.001 er 0.001] 
s 0.502683583 _3_ MAC  --- 0 CTS 38 [3f4 2 0 0] [energy 2.773427 ei 0.225 es 0.000 et 0.001 er 0.001] 
N -t 0.502684 -n 2 -e 2.773066
N -t 0.502684 -n 4 -e 2.773546
N -t 0.502685 -n 5 -e 2.773546
N -t 0.502685 -n 0 -e 2.773545
N -t 0.502685 -n 1 -e 2.773545
r 0.502987777 _2_ MAC  --- 0 CTS 38 [3f4 2 0 0] [energy 2.773066 ei 0.225 es 0.000 et 0.001 er 0.000] 
s 0.502997777 _2_ MAC  --- 0 ARP 86 [13a 3 2 806] [energy 2.773066 ei 0.225 es 0.000 et 0.001 er 0.000] ------- [REPLY 2/2 3/3]
N -t 0.502998 -n 3 -e 2.772801
N -t 0.502999 -n 4 -e 2.773197
N -t 0.502999 -n 5 -e 2.773197
N -t 0.502999 -n 0 -e 2.773197
N -t 0.502999 -n 1 -e 2.773197
r 0.503685972 _3_ MAC  --- 0 ARP 28 [13a 3 2 806] [energy 2.772801 ei 0.225 es 0.000 et 0.001 er 0.001] ------- [REPLY 2/2 3/3]
s 0.503695972 _3_ MAC  --- 0 ACK 38 [0 2 0 0] [energy 2.772801 ei 0.225 es 0.000 et 0.001 er 0.001] 
N -t 0.503696 -n 2 -e 2.772286
N -t 0.503697 -n 4 -e 2.773040
N -t 0.503697 -n 5 -e 2.773040
N -t 0.503697 -n 0 -e 2.773040
N -t 0.503697 -n 1 -e 2.773040
s 0.503750000 _2_ AGT  --- 1 cbr 210 [0 0 0 0] [energy 2.772286 ei 0.225 es 0.000 et 0.002 er 0.001] ------- [2:0 3:0 32 0] [1] 0 0
r 0.503750000 _2_ RTR  --- 1 cbr 210 [0 0 0 0] [energy 2.772286 ei 0.225 es 0.000 et 0.002 er 0.001] ------- [2:0 3:0 32 0] [1] 0 0
r 0.504000166 _2_ MAC  --- 0 ACK 38 [0 2 0 0] [energy 2.772286 ei 0.225 es 0.000 et 0.002 er 0.001] 
s 0.504129972 _3_ MAC  --- 0 RTS 44 [5ae 2 3 0] [energy 2.772522 ei 0.225 es 0.000 et 0.001 er 0.001] 
N -t 0.504130 -n 2 -e 2.772051
N -t 0.504131 -n 4 -e 2.772806
N -t 0.504131 -n 5 -e 2.772806
N -t 0.504131 -n 0 -e 2.772806
N -t 0.504131 -n 1 -e 2.772806
r 0.504482166 _2_ MAC  --- 0 RTS 44 [5ae 2 3 0] [energy 2.772051 ei 0.225 es 0.000 et 0.002 er 0.001] 
s 0.504492166 _2_ MAC  --- 0 CTS 38 [474 3 0 0] [energy 2.772051 ei 0.225 es 0.000 et 0.002 er 0.001] 
N -t 0.504492 -n 3 -e 2.771990
N -t 0.504493 -n 4 -e 2.772649
N -t 0.504493 -n 5 -e 2.772649
N -t 0.504494 -n 0 -e 2.772649
N -t 0.504494 -n 1 -e 2.772649
r 0.504796361 _3_ MAC  --- 0 CTS 38 [474 3 0 0] [energy 2.771990 ei 0.225 es 0.000 et 0.001 er 0.001] 
s 0.504806361 _3_ MAC  --- 0 AODV 102 [13a 2 3 800] [energy 2.771990 ei 0.225 es 0.000 et 0.001 er 0.001] ------- [3:255 2:255 30 2] [0x4 1 [3 4] 10.000000] (REPLY)
N -t 0.504807 -n 2 -e 2.771360
N -t 0.504807 -n 4 -e 2.772237
N -t 0.504807 -n 5 -e 2.772237
N -t 0.504808 -n 0 -e 2.772237
N -t 0.504808 -n 1 -e 2.772237
r 0.505622555 _2_ MAC  --- 0 AODV 44 [13a 2 3 800] [energy 2.771360 ei 0.225 es 0.000 et 0.002 er 0.001] ------- [3:255 2:255 30 2] [0x4 1 [3 4] 10.000000] (REPLY)
s 0.505632555 _2_ MAC  --- 0 ACK 38 [0 3 0 0] [energy 2.771360 ei 0.225 es 0.000 et 0.002 er 0.001] 
N -t 0.505633 -n 3 -e 2.771095
N -t 0.505634 -n 4 -e 2.772080
N -t 0.505634 -n 5 -e 2.772080
N -t 0.505634 -n 0 -e 2.772080
N -t 0.505634 -n 1 -e 2.772080
r 0.505647555 _2_ RTR  --- 0 AODV 44 [13a 2 3 800] [energy 2.771082 ei 0.225 es 0.000 et 0.002 er 0.001] ------- [3:255 2:255 30 2] [0x4 1 [3 4] 10.000000] (REPLY)
s 0.505647555 _2_ RTR  --- 0 cbr 230 [0 0 0 0] [energy 2.771082 ei 0.225 es 0.000 et 0.002 er 0.001] ------- [2:0 3:0 30 3] [0] 0 0
r 0.505936749 _3_ MAC  --- 0 ACK 38 [0 3 0 0] [energy 2.771095 ei 0.225 es 0.000 et 0.002 er 0.001] 
s 0.506146555 _2_ MAC  --- 0 RTS 44 [b7e 3 2 0] [energy 2.771082 ei 0.225 es 0.000 et 0.002 er 0.001] 
N -t 0.506147 -n 3 -e 2.770824
N -t 0.506148 -n 4 -e 2.771810
N -t 0.506148 -n 5 -e 2.771810
N -t 0.506148 -n 0 -e 2.771809
N -t 0.506148 -n 1 -e 2.771809
r 0.506498749 _3_ MAC  --- 0 RTS 44 [b7e 3 2 0] [energy 2.770824 ei 0.226 es 0.000 et 0.002 er 0.001] 
s 0.506508749 _3_ MAC  --- 0 CTS 38 [a44 2 0 0] [energy 2.770824 ei 0.226 es 0.000 et 0.002 er 0.001] 
N -t 0.506509 -n 2 -e 2.770514
N -t 0.506510 -n 4 -e 2.771653
N -t 0.506510 -n 5 -e 2.771653
N -t 0.506510 -n 0 -e 2.771653
N -t 0.506510 -n 1 -e 2.771653
r 0.506812944 _2_ MAC  --- 0 CTS 38 [a44 2 0 0] [energy 2.770514 ei 0.226 es 0.000 et 0.003 er 0.001] 
s 0.506822944 _2_ MAC  --- 0 cbr 288 [13a 3 2 800] [energy 2.770514 ei 0.226 es 0.000 et 0.003 er 0.001] ------- [2:0 3:0 30 3] [0] 0 0
N -t 0.506823 -n 3 -e 2.769390
N -t 0.506824 -n 4 -e 2.770496
N -t 0.506824 -n 5 -e 2.770496
N -t 0.506824 -n 0 -e 2.770496
N -t 0.506824 -n 1 -e 2.770496
s 0.507500000 _2_ AGT  --- 2 cbr 210 [0 0 0 0] [energy 2.768436 ei 0.226 es 0.000 et 0.005 er 0.001] ------- [2:0 3:0 32 0] [2] 0 0
r 0.507500000 _2_ RTR  --- 2 cbr 210 [0 0 0 0] [energy 2.768436 ei 0.226 es 0.000 et 0.005 er 0.001] ------- [2:0 3:0 32 0] [2] 0 0
s 0.507500000 _2_ RTR  --- 2 cbr 230 [0 0 0 0] [energy 2.768436 ei 0.226 es 0.000 et 0.005 er 0.001] ------- [2:0 3:0 30 3] [2] 0 0
r 0.509127138 _3_ MAC  --- 0 cbr 230 [13a 3 2 800] [energy 2.769390 ei 0.226 es 0.000 et 0.002 er 0.003] ------- [2:0 3:0 30 3] [0] 1 0
s 0.509137138 _3_ MAC  --- 0 ACK 38 [0 2 0 0] [energy 2.769390 ei 0.226 es 0.000 et 0.002 er 0.003] 
N -t 0.509137 -n 2 -e 2.768279
N -t 0.509138 -n 4 -e 2.770340
N -t 0.509138 -n 5 -e 2.770340
N -t 0.509138 -n 0 -e 2.770340
N -t 0.509139 -n 1 -e 2.770340
r 0.509152138 _3_ AGT  --- 0 cbr 230 [13a 3 2 800] [energy 2.769111 ei 0.226 es 0.000 et 0.003 er 0.003] ------- [2:0 3:0 30 3] [0] 1 0
r 0.509441332 _2_ MAC  --- 0 ACK 38 [0 2 0 0] [energy 2.768279 ei 0.226 es 0.000 et 0.005 er 0.002] 
s 0.509731332 _2_ MAC  --- 0 RTS 44 [b7e 3 2 0] [energy 2.768279 ei 0.226 es 0.000 et 0.005 er 0.002] 
N -t 0.509732 -n 3 -e 2.768805
N -t 0.509732 -n 4 -e 2.770033
N -t 0.509732 -n 5 -e 2.770033
N -t 0.509733 -n 0 -e 2.770033
N -t 0.509733 -n 1 -e 2.770033
r 0.510083527 _3_ MAC  --- 0 RTS 44 [b7e 3 2 0] [energy 2.768805 ei 0.226 es 0.000 et 0.003 er 0.003] 
s 0.510093527 _3_ MAC  --- 0 CTS 38 [a44 2 0 0] [energy 2.768805 ei 0.226 es 0.000 et 0.003 er 0.003] 
N -t 0.510094 -n 2 -e 2.767675
N -t 0.510094 -n 4 -e 2.769877
N -t 0.510095 -n 5 -e 2.769877
N -t 0.510095 -n 0 -e 2.769877
N -t 0.510095 -n 1 -e 2.769876
r 0.510397721 _2_ MAC  --- 0 CTS 38 [a44 2 0 0] [energy 2.767675 ei 0.226 es 0.000 et 0.005 er 0.002] 
s 0.510407721 _2_ MAC  --- 2 cbr 288 [13a 3 2 800] [energy 2.767675 ei 0.226 es 0.000 et 0.005 er 0.002] ------- [2:0 3:0 30 3] [2] 0 0
N -t 0.510408 -n 3 -e 2.767370
N -t 0.510409 -n 4 -e 2.768720
N -t 0.510409 -n 5 -e 2.768720
N -t 0.510409 -n 0 -e 2.768720
N -t 0.510409 -n 1 -e 2.768720
s 0.511250000 _2_ AGT  --- 3 cbr 210 [0 0 0 0] [energy 2.765597 ei 0.226 es 0.000 et 0.007 er 0.002] ------- [2:0 3:0 32 0] [3] 0 0
r 0.511250000 _2_ RTR  --- 3 cbr 210 [0 0 0 0] [energy 2.765597 ei 0.226 es 0.000 et 0.007 er 0.002] ------- [2:0 3:0 32 0] [3] 0 0
s 0.511250000 _2_ RTR  --- 3 cbr 230 [0 0 0 0] [energy 2.765597 ei 0.226 es 0.000 et 0.007 er 0.002] ------- [2:0 3:0 30 3] [3] 0 0
r 0.512711915 _3_ MAC  --- 2 cbr 230 [13a 3 2 800] [energy 2.767370 ei 0.226 es 0.000 et 0.003 er 0.004] ------- [2:0 3:0 30 3] [2] 1 0
s 0.512721915 _3_ MAC  --- 0 ACK 38 [0 2 0 0] [energy 2.767370 ei 0.226 es 0.000 et 0.003 er 0.004] 
N -t 0.512722 -n 2 -e 2.765441
N -t 0.512723 -n 4 -e 2.768564
N -t 0.512723 -n 5 -e 2.768563
N -t 0.512723 -n 0 -e 2.768563
N -t 0.512723 -n 1 -e 2.768563
r 0.512736915 _3_ AGT  --- 2 cbr 230 [13a 3 2 800] [energy 2.767092 ei 0.226 es 0.000 et 0.003 er 0.004] ------- [2:0 3:0 30 3] [2] 1 0
r 0.513026110 _2_ MAC  --- 0 ACK 38 [0 2 0 0] [energy 2.765441 ei 0.226 es 0.000 et 0.007 er 0.002] 
s 0.513436110 _2_ MAC  --- 0 RTS 44 [b7e 3 2 0] [energy 2.765441 ei 0.226 es 0.000 et 0.007 er 0.002] 
N -t 0.513436 -n 3 -e 2.766731
N -t 0.513437 -n 4 -e 2.768203
N -t 0.513437 -n 5 -e 2.768203
N -t 0.513437 -n 0 -e 2.768203
N -t 0.513438 -n 1 -e 2.768203
r 0.513788304 _3_ MAC  --- 0 RTS 44 [b7e 3 2 0] [energy 2.766731 ei 0.226 es 0.000 et 0.003 er 0.004] 
s 0.513798304 _3_ MAC  --- 0 CTS 38 [a44 2 0 0] [energy 2.766731 ei 0.226 es 0.000 et 0.003 er 0.004] 
N -t 0.513798 -n 2 -e 2.764783
N -t 0.513799 -n 4 -e 2.768046
N -t 0.513799 -n 5 -e 2.768046
N -t 0.513800 -n 0 -e 2.768046
N -t 0.513800 -n 1 -e 2.768046
r 0.514102499 _2_ MAC  --- 0 CTS 38 [a44 2 0 0] [energy 2.764783 ei 0.226 es 0.000 et 0.007 er 0.002] 
s 0.514112499 _2_ MAC  --- 3 cbr 288 [13a 3 2 800] [energy 2.764783 ei 0.226 es 0.000 et 0.007 er 0.002] ------- [2:0 3:0 30 3] [3] 0 0
N -t 0.514113 -n 3 -e 2.765296
N -t 0.514114 -n 4 -e 2.766890
N -t 0.514114 -n 5 -e 2.766890
N -t 0.514114 -n 0 -e 2.766890
N -t 0.514114 -n 1 -e 2.766890
s 0.515000000 _2_ AGT  --- 4 cbr 210 [0 0 0 0] [energy 2.762705 ei 0.226 es 0.000 et 0.009 er 0.002] ------- [2:0 3:0 32 0] [4] 0 0
r 0.515000000 _2_ RTR  --- 4 cbr 210 [0 0 0 0] [energy 2.762705 ei 0.226 es 0.000 et 0.009 er 0.002] ------- [2:0 3:0 32 0] [4] 0 0
s 0.515000000 _2_ RTR  --- 4 cbr 230 [0 0 0 0] [energy 2.762705 ei 0.226 es 0.000 et 0.009 er 0.002] ------- [2:0 3:0 30 3] [4] 0 0
s 0.515647555 _2_ RTR  --- 1 cbr 230 [0 0 0 0] [energy 2.762705 ei 0.226 es 0.000 et 0.009 er 0.002] ------- [2:0 3:0 30 3] [1] 0 0
r 0.516416693 _3_ MAC  --- 3 cbr 230 [13a 3 2 800] [energy 2.765296 ei 0.226 es 0.000 et 0.004 er 0.005] ------- [2:0 3:0 30 3] [3] 1 0
s 0.516426693 _3_ MAC  --- 0 ACK 38 [0 2 0 0] [energy 2.765296 ei 0.226 es 0.000 et 0.004 er 0.005] 
N -t 0.516427 -n 2 -e 2.762548
N -t 0.516428 -n 4 -e 2.766733
N -t 0.516428 -n 5 -e 2.766733
N -t 0.516428 -n 0 -e 2.766733
N -t 0.516428 -n 1 -e 2.766733
r 0.516441693 _3_ AGT  --- 3 cbr 230 [13a 3 2 800] [energy 2.765018 ei 0.226 es 0.000 et 0.004 er 0.005] ------- [2:0 3:0 30 3] [3] 1 0
r 0.516730887 _2_ MAC  --- 0 ACK 38 [0 2 0 0] [energy 2.762548 ei 0.226 es 0.000 et 0.009 er 0.002] 
s 0.517040887 _2_ MAC  --- 0 RTS 44 [b7e 3 2 0] [energy 2.762548 ei 0.226 es 0.000 et 0.009 er 0.002] 
N -t 0.517041 -n 3 -e 2.764703
N -t 0.517042 -n 4 -e 2.766418
N -t 0.517042 -n 5 -e 2.766417
N -t 0.517042 -n 0 -e 2.766417
N -t 0.517042 -n 1 -e 2.766417
r 0.517393082 _3_ MAC  --- 0 RTS 44 [b7e 3 2 0] [energy 2.764703 ei 0.226 es 0.000 et 0.004 er 0.005] 
s 0.517403082 _3_ MAC  --- 0 CTS 38 [a44 2 0 0] [energy 2.764703 ei 0.226 es 0.000 et 0.004 er 0.005] 
N -t 0.517403 -n 2 -e 2.761935
N -t 0.517404 -n 4 -e 2.766261
N -t 0.517404 -n 5 -e 2.766261
N -t 0.517404 -n 0 -e 2.766261
N -t 0.517404 -n 1 -e 2.766261
r 0.517707276 _2_ MAC  --- 0 CTS 38 [a44 2 0 0] [energy 2.761935 ei 0.226 es 0.000 et 0.010 er 0.002] 
s 0.517717276 _2_ MAC  --- 4 cbr 288 [13a 3 2 800] [energy 2.761935 ei 0.226 es 0.000 et 0.010 er 0.002] ------- [2:0 3:0 30 3] [4] 0 0
N -t 0.517717 -n 3 -e 2.763268
N -t 0.517718 -n 4 -e 2.765104
N -t 0.517718 -n 5 -e 2.765104
N -t 0.517719 -n 0 -e 2.765104
N -t 0.517719 -n 1 -e 2.765104
s 0.518750000 _2_ AGT  --- 5 cbr 210 [0 0 0 0] [energy 2.759857 ei 0.226 es 0.000 et 0.012 er 0.002] ------- [2:0 3:0 32 0] [5] 0 0
r 0.518750000 _2_ RTR  --- 5 cbr 210 [0 0 0 0] [energy 2.759857 ei 0.226 es 0.000 et 0.012 er 0.002] ------- [2:0 3:0 32 0] [5] 0 0
s 0.518750000 _2_ RTR  --- 5 cbr 230 [0 0 0 0] [energy 2.759857 ei 0.226 es 0.000 et 0.012 er 0.002] ------- [2:0 3:0 30 3] [5] 0 0
r 0.520021470 _3_ MAC  --- 4 cbr 230 [13a 3 2 800] [energy 2.763268 ei 0.226 es 0.000 et 0.004 er 0.007] ------- [2:0 3:0 30 3] [4] 1 0
s 0.520031470 _3_ MAC  --- 0 ACK 38 [0 2 0 0] [energy 2.763268 ei 0.226 es 0.000 et 0.004 er 0.007] 
N -t 0.520032 -n 2 -e 2.759700
N -t 0.520032 -n 4 -e 2.764948
N -t 0.520033 -n 5 -e 2.764948
N -t 0.520033 -n 0 -e 2.764948
N -t 0.520033 -n 1 -e 2.764948
r 0.520046470 _3_ AGT  --- 4 cbr 230 [13a 3 2 800] [energy 2.762990 ei 0.226 es 0.000 et 0.004 er 0.007] ------- [2:0 3:0 30 3] [4] 1 0
r 0.520335665 _2_ MAC  --- 0 ACK 38 [0 2 0 0] [energy 2.759700 ei 0.226 es 0.000 et 0.012 er 0.002] 
s 0.520625665 _2_ MAC  --- 0 RTS 44 [b7e 3 2 0] [energy 2.759700 ei 0.226 es 0.000 et 0.012 er 0.002] 
N -t 0.520626 -n 3 -e 2.762683
N -t 0.520627 -n 4 -e 2.764641
N -t 0.520627 -n 5 -e 2.764641
N -t 0.520627 -n 0 -e 2.764641
N -t 0.520627 -n 1 -e 2.764641
r 0.520977859 _3_ MAC  --- 0 RTS 44 [b7e 3 2 0] [energy 2.762683 ei 0.226 es 0.000 et 0.004 er 0.007] 
s 0.520987859 _3_ MAC  --- 0 CTS 38 [a44 2 0 0] [energy 2.762683 ei 0.226 es 0.000 et 0.004 er 0.007] 
N -t 0.520988 -n 2 -e 2.759096
N -t 0.520989 -n 4 -e 2.764485
N -t 0.520989 -n 5 -e 2.764485
N -t 0.520989 -n 0 -e 2.764484
N -t 0.520989 -n 1 -e 2.764484
r 0.521292053 _2_ MAC  --- 0 CTS 38 [a44 2 0 0] [energy 2.759096 ei 0.226 es 0.000 et 0.012 er 0.003] 
s 0.521302053 _2_ MAC  --- 1 cbr 288 [13a 3 2 800] [energy 2.759096 ei 0.226 es 0.000 et 0.012 er 0.003] ------- [2:0 3:0 30 3] [1] 0 0
N -t 0.521302 -n 3 -e 2.761248
N -t 0.521303 -n 4 -e 2.763328
N -t 0.521303 -n 5 -e 2.763328
N -t 0.521303 -n 0 -e 2.763328
N -t 0.521304 -n 1 -e 2.763328
s 0.522500000 _2_ AGT  --- 6 cbr 210 [0 0 0 0] [energy 2.757018 ei 0.226 es 0.000 et 0.014 er 0.003] ------- [2:0 3:0 32 0] [6] 0 0
r 0.522500000 _2_ RTR  --- 6 cbr 210 [0 0 0 0] [energy 2.757018 ei 0.226 es 0.000 et 0.014 er 0.003] ------- [2:0 3:0 32 0] [6] 0 0
s 0.522500000 _2_ RTR  --- 6 cbr 230 [0 0 0 0] [energy 2.757018 ei 0.226 es 0.000 et 0.014 er 0.003] ------- [2:0 3:0 30 3] [6] 0 0
r 0.523606248 _3_ MAC  --- 1 cbr 230 [13a 3 2 800] [energy 2.761248 ei 0.226 es 0.000 et 0.005 er 0.008] ------- [2:0 3:0 30 3] [1] 1 0
s 0.523616248 _3_ MAC  --- 0 ACK 38 [0 2 0 0] [energy 2.761248 ei 0.226 es 0.000 et 0.005 er 0.008] 
N -t 0.523616 -n 2 -e 2.756861
N -t 0.523617 -n 4 -e 2.763171
N -t 0.523617 -n 5 -e 2.763171
N -t 0.523618 -n 0 -e 2.763171
N -t 0.523618 -n 1 -e 2.763171
r 0.523631248 _3_ AGT  --- 1 cbr 230 [13a 3 2 800] [energy 2.760970 ei 0.226 es 0.000 et 0.005 er 0.008] ------- [2:0 3:0 30 3] [1] 1 0
r 0.523920442 _2_ MAC  --- 0 ACK 38 [0 2 0 0] [energy 2.756861 ei 0.226 es 0.000 et 0.014 er 0.003] 
s 0.524010442 _2_ MAC  --- 0 RTS 44 [b7e 3 2 0] [energy 2.756861 ei 0.226 es 0.000 et 0.014 er 0.003] 
N -t 0.524011 -n 3 -e 2.760754
N -t 0.524011 -n 4 -e 2.762955
N -t 0.524012 -n 5 -e 2.762955
N -t 0.524012 -n 0 -e 2.762955
N -t 0.524012 -n 1 -e 2.762955
r 0.524362637 _3_ MAC  --- 0 RTS 44 [b7e 3 2 0] [energy 2.760754 ei 0.226 es 0.000 et 0.005 er 0.008] 
s 0.524372637 _3_ MAC  --- 0 CTS 38 [a44 2 0 0] [energy 2.760754 ei 0.226 es 0.000 et 0.005 er 0.008] 
N -t 0.524373 -n 2 -e 2.756347
N -t 0.524374 -n 4 -e 2.762798
N -t 0.524374 -n 5 -e 2.762798
N -t 0.524374 -n 0 -e 2.762798
N -t 0.524374 -n 1 -e 2.762798
r 0.524676831 _2_ MAC  --- 0 CTS 38 [a44 2 0 0] [energy 2.756347 ei 0.226 es 0.000 et 0.015 er 0.003] 
s 0.524686831 _2_ MAC  --- 5 cbr 288 [13a 3 2 800] [energy 2.756347 ei 0.226 es 0.000 et 0.015 er 0.003] ------- [2:0 3:0 30 3] [5] 0 0
N -t 0.524687 -n 3 -e 2.759319
N -t 0.524688 -n 4 -e 2.761642
N -t 0.524688 -n 5 -e 2.761642
N -t 0.524688 -n 0 -e 2.761642
N -t 0.524688 -n 1 -e 2.761641
s 0.526250000 _2_ AGT  --- 7 cbr 210 [0 0 0 0] [energy 2.754269 ei 0.226 es 0.000 et 0.017 er 0.003] ------- [2:0 3:0 32 0] [7] 0 0
r 0.526250000 _2_ RTR  --- 7 cbr 210 [0 0 0 0] [energy 2.754269 ei 0.226 es 0.000 et 0.017 er 0.003] ------- [2:0 3:0 32 0] [7] 0 0
s 0.526250000 _2_ RTR  --- 7 cbr 230 [0 0 0 0] [energy 2.754269 ei 0.226 es 0.000 et 0.017 er 0.003] ------- [2:0 3:0 30 3] [7] 0 0
r 0.526991025 _3_ MAC  --- 5 cbr 230 [13a 3 2 800] [energy 2.759319 ei 0.226 es 0.000 et 0.005 er 0.009] ------- [2:0 3:0 30 3] [5] 1 0
s 0.527001025 _3_ MAC  --- 0 ACK 38 [0 2 0 0] [energy 2.759319 ei 0.226 es 0.000 et 0.005 er 0.009] 
N -t 0.527001 -n 2 -e 2.754113
N -t 0.527002 -n 4 -e 2.761485
N -t 0.527002 -n 5 -e 2.761485
N -t 0.527002 -n 0 -e 2.761485
N -t 0.527002 -n 1 -e 2.761485
r 0.527016025 _3_ AGT  --- 5 cbr 230 [13a 3 2 800] [energy 2.759041 ei 0.226 es 0.000 et 0.006 er 0.009] ------- [2:0 3:0 30 3] [5] 1 0
r 0.527305220 _2_ MAC  --- 0 ACK 38 [0 2 0 0] [energy 2.754113 ei 0.226 es 0.000 et 0.017 er 0.003] 
s 0.527895220 _2_ MAC  --- 0 RTS 44 [b7e 3 2 0] [energy 2.754113 ei 0.226 es 0.000 et 0.017 er 0.003] 
N -t 0.527895 -n 3 -e 2.758599
N -t 0.527896 -n 4 -e 2.761043
N -t 0.527896 -n 5 -e 2.761043
N -t 0.527897 -n 0 -e 2.761043
N -t 0.527897 -n 1 -e 2.761043
r 0.528247414 _3_ MAC  --- 0 RTS 44 [b7e 3 2 0] [energy 2.758599 ei 0.227 es 0.000 et 0.006 er 0.009] 
s 0.528257414 _3_ MAC  --- 0 CTS 38 [a44 2 0 0] [energy 2.758599 ei 0.227 es 0.000 et 0.006 er 0.009] 
N -t 0.528258 -n 2 -e 2.753374
N -t 0.528258 -n 4 -e 2.760887
N -t 0.528258 -n 5 -e 2.760887
N -t 0.528259 -n 0 -e 2.760887
N -t 0.528259 -n 1 -e 2.760887
r 0.528561608 _2_ MAC  --- 0 CTS 38 [a44 2 0 0] [energy 2.753374 ei 0.227 es 0.000 et 0.017 er 0.003] 
s 0.528571608 _2_ MAC  --- 6 cbr 288 [13a 3 2 800] [energy 2.753374 ei 0.227 es 0.000 et 0.017 er 0.003] ------- [2:0 3:0 30 3] [6] 0 0
N -t 0.528572 -n 3 -e 2.757164
N -t 0.528573 -n 4 -e 2.759730
N -t 0.528573 -n 5 -e 2.759730
N -t 0.528573 -n 0 -e 2.759730
N -t 0.528573 -n 1 -e 2.759730
s 0.530000000 _2_ AGT  --- 8 cbr 210 [0 0 0 0] [energy 2.751296 ei 0.227 es 0.000 et 0.019 er 0.003] ------- [2:0 3:0 32 0] [8] 0 0
r 0.530000000 _2_ RTR  --- 8 cbr 210 [0 0 0 0] [energy 2.751296 ei 0.227 es 0.000 et 0.019 er 0.003] ------- [2:0 3:0 32 0] [8] 0 0
s 0.530000000 _2_ RTR  --- 8 cbr 230 [0 0 0 0] [energy 2.751296 ei 0.227 es 0.000 et 0.019 er 0.003] ------- [2:0 3:0 30 3] [8] 0 0
r 0.530875803 _3_ MAC  --- 6 cbr 230 [13a 3 2 800] [energy 2.757164 ei 0.227 es 0.000 et 0.006 er 0.011] ------- [2:0 3:0 30 3] [6] 1 0
s 0.530885803 _3_ MAC  --- 0 ACK 38 [0 2 0 0] [energy 2.757164 ei 0.227 es 0.000 et 0.006 er 0.011] 
N -t 0.530886 -n 2 -e 2.751139
N -t 0.530887 -n 4 -e 2.759574
N -t 0.530887 -n 5 -e 2.759574
N -t 0.530887 -n 0 -e 2.759574
N -t 0.530887 -n 1 -e 2.759574
r 0.530900803 _3_ AGT  --- 6 cbr 230 [13a 3 2 800] [energy 2.756886 ei 0.227 es 0.000 et 0.006 er 0.011] ------- [2:0 3:0 30 3] [6] 1 0
r 0.531189997 _2_ MAC  --- 0 ACK 38 [0 2 0 0] [energy 2.751139 ei 0.227 es 0.000 et 0.019 er 0.003] 
s 0.531399997 _2_ MAC  --- 0 RTS 44 [b7e 3 2 0] [energy 2.751139 ei 0.227 es 0.000 et 0.019 er 0.003] 
N -t 0.531400 -n 3 -e 2.756616
N -t 0.531401 -n 4 -e 2.759303
N -t 0.531401 -n 5 -e 2.759303
N -t 0.531401 -n 0 -e 2.759303
N -t 0.531401 -n 1 -e 2.759303
r 0.531752192 _3_ MAC  --- 0 RTS 44 [b7e 3 2 0] [energy 2.756616 ei 0.227 es 0.000 et 0.006 er 0.011] 
s 0.531762192 _3_ MAC  --- 0 CTS 38 [a44 2 0 0] [energy 2.756616 ei 0.227 es 0.000 et 0.006 er 0.011] 
N -t 0.531762 -n 2 -e 2.750571
N -t 0.531763 -n 4 -e 2.759147
N -t 0.531763 -n 5 -e 2.759147
N -t 0.531763 -n 0 -e 2.759146
N -t 0.531764 -n 1 -e 2.759146
r 0.532066386 _2_ MAC  --- 0 CTS 38 [a44 2 0 0] [energy 2.750571 ei 0.227 es 0.000 et 0.019 er 0.004] 
s 0.532076386 _2_ MAC  --- 7 cbr 288 [13a 3 2 800] [energy 2.750571 ei 0.227 es 0.000 et 0.019 er 0.004] ------- [2:0 3:0 30 3] [7] 0 0
N -t 0.532077 -n 3 -e 2.755181
N -t 0.532077 -n 4 -e 2.757990
N -t 0.532078 -n 5 -e 2.757990
N -t 0.532078 -n 0 -e 2.757990
N -t 0.532078 -n 1 -e 2.757990
s 0.533750000 _2_ AGT  --- 9 cbr 210 [0 0 0 0] [energy 2.748493 ei 0.227 es 0.000 et 0.021 er 0.004] ------- [2:0 3:0 32 0] [9] 0 0
r 0.533750000 _2_ RTR  --- 9 cbr 210 [0 0 0 0] [energy 2.748493 ei 0.227 es 0.000 et 0.021 er 0.004] ------- [2:0 3:0 32 0] [9] 0 0
s 0.533750000 _2_ RTR  --- 9 cbr 230 [0 0 0 0] [energy 2.748493 ei 0.227 es 0.000 et 0.021 er 0.004] ------- [2:0 3:0 30 3] [9] 0 0
r 0.534380580 _3_ MAC  --- 7 cbr 230 [13a 3 2 800] [energy 2.755181 ei 0.227 es 0.000 et 0.006 er 0.012] ------- [2:0 3:0 30 3] [7] 1 0
s 0.534390580 _3_ MAC  --- 0 ACK 38 [0 2 0 0] [energy 2.755181 ei 0.227 es 0.000 et 0.006 er 0.012] 
N -t 0.534391 -n 2 -e 2.748336
N -t 0.534391 -n 4 -e 2.757833
N -t 0.534392 -n 5 -e 2.757833
N -t 0.534392 -n 0 -e 2.757833
N -t 0.534392 -n 1 -e 2.757833
r 0.534405580 _3_ AGT  --- 7 cbr 230 [13a 3 2 800] [energy 2.754903 ei 0.227 es 0.000 et 0.007 er 0.012] ------- [2:0 3:0 30 3] [7] 1 0
r 0.534694775 _2_ MAC  --- 0 ACK 38 [0 2 0 0] [energy 2.748336 ei 0.227 es 0.000 et 0.021 er 0.004] 
s 0.535104775 _2_ MAC  --- 0 RTS 44 [b7e 3 2 0] [energy 2.748336 ei 0.227 es 0.000 et 0.021 er 0.004] 
N -t 0.535105 -n 3 -e 2.754542
N -t 0.535106 -n 4 -e 2.757473
N -t 0.535106 -n 5 -e 2.757473
N -t 0.535106 -n 0 -e 2.757473
N -t 0.535106 -n 1 -e 2.757473
r 0.535456969 _3_ MAC  --- 0 RTS 44 [b7e 3 2 0] [energy 2.754542 ei 0.227 es 0.000 et 0.007 er 0.012] 
s 0.535466969 _3_ MAC  --- 0 CTS 38 [a44 2 0 0] [energy 2.754542 ei 0.227 es 0.000 et 0.007 er 0.012] 
N -t 0.535467 -n 2 -e 2.747678
N -t 0.535468 -n 4 -e 2.757316
N -t 0.535468 -n 5 -e 2.757316
N -t 0.535468 -n 0 -e 2.757316
N -t 0.535468 -n 1 -e 2.757316
r 0.535771163 _2_ MAC  --- 0 CTS 38 [a44 2 0 0] [energy 2.747678 ei 0.227 es 0.000 et 0.022 er 0.004] 
s 0.535781163 _2_ MAC  --- 8 cbr 288 [13a 3 2 800] [energy 2.747678 ei 0.227 es 0.000 et 0.022 er 0.004] ------- [2:0 3:0 30 3] [8] 0 0
N -t 0.535781 -n 3 -e 2.753107
N -t 0.535782 -n 4 -e 2.756160
N -t 0.535782 -n 5 -e 2.756160
N -t 0.535783 -n 0 -e 2.756159
N -t 0.535783 -n 1 -e 2.756159
s 0.537500000 _2_ AGT  --- 10 cbr 210 [0 0 0 0] [energy 2.745600 ei 0.227 es 0.000 et 0.024 er 0.004] ------- [2:0 3:0 32 0] [10] 0 0
r 0.537500000 _2_ RTR  --- 10 cbr 210 [0 0 0 0] [energy 2.745600 ei 0.227 es 0.000 et 0.024 er 0.004] ------- [2:0 3:0 32 0] [10] 0 0
s 0.537500000 _2_ RTR  --- 10 cbr 230 [0 0 0 0] [energy 2.745600 ei 0.227 es 0.000 et 0.024 er 0.004] ------- [2:0 3:0 30 3] [10] 0 0
r 0.538085358 _3_ MAC  --- 8 cbr 230 [13a 3 2 800] [energy 2.753107 ei 0.227 es 0.000 et 0.007 er 0.013] ------- [2:0 3:0 30 3] [8] 1 0
s 0.538095358 _3_ MAC  --- 0 ACK 38 [0 2 0 0] [energy 2.753107 ei 0.227 es 0.000 et 0.007 er 0.013] 
N -t 0.538096 -n 2 -e 2.745443
N -t 0.538096 -n 4 -e 2.756003
N -t 0.538096 -n 5 -e 2.756003
N -t 0.538097 -n 0 -e 2.756003
N -t 0.538097 -n 1 -e 2.756003
r 0.538110358 _3_ AGT  --- 8 cbr 230 [13a 3 2 800] [energy 2.752829 ei 0.227 es 0.000 et 0.007 er 0.013] ------- [2:0 3:0 30 3] [8] 1 0
r 0.538399552 _2_ MAC  --- 0 ACK 38 [0 2 0 0] [energy 2.745443 ei 0.227 es 0.000 et 0.024 er 0.004] 
s 0.538689552 _2_ MAC  --- 0 RTS 44 [b7e 3 2 0] [energy 2.745443 ei 0.227 es 0.000 et 0.024 er 0.004] 
N -t 0.538690 -n 3 -e 2.752522
N -t 0.538691 -n 4 -e 2.755696
N -t 0.538691 -n 5 -e 2.755696
N -t 0.538691 -n 0 -e 2.755696
N -t 0.538691 -n 1 -e 2.755696
r 0.539041746 _3_ MAC  --- 0 RTS 44 [b7e 3 2 0] [energy 2.752522 ei 0.227 es 0.000 et 0.007 er 0.013] 
s 0.539051746 _3_ MAC  --- 0 CTS 38 [a44 2 0 0] [energy 2.752522 ei 0.227 es 0.000 et 0.007 er 0.013] 
N -t 0.539052 -n 2 -e 2.744839
N -t 0.539053 -n 4 -e 2.755540
N -t 0.539053 -n 5 -e 2.755540
N -t 0.539053 -n 0 -e 2.755540
N -t 0.539053 -n 1 -e 2.755540
r 0.539355941 _2_ MAC  --- 0 CTS 38 [a44 2 0 0] [energy 2.744839 ei 0.227 es 0.000 et 0.024 er 0.004] 
s 0.539365941 _2_ MAC  --- 9 cbr 288 [13a 3 2 800] [energy 2.744839 ei 0.227 es 0.000 et 0.024 er 0.004] ------- [2:0 3:0 30 3] [9] 0 0
N -t 0.539366 -n 3 -e 2.751088
N -t 0.539367 -n 4 -e 2.754383
N -t 0.539367 -n 5 -e 2.754383
N -t 0.539367 -n 0 -e 2.754383
N -t 0.539367 -n 1 -e 2.754383
s 0.541250000 _2_ AGT  --- 11 cbr 210 [0 0 0 0] [energy 2.742761 ei 0.227 es 0.000 et 0.026 er 0.004] ------- [2:0 3:0 32 0] [11] 0 0
r 0.541250000 _2_ RTR  --- 11 cbr 210 [0 0 0 0] [energy 2.742761 ei 0.227 es 0.000 et 0.026 er 0.004] ------- [2:0 3:0 32 0] [11] 0 0
s 0.541250000 _2_ RTR  --- 11 cbr 230 [0 0 0 0] [energy 2.742761 ei 0.227 es 0.000 et 0.026 er 0.004] ------- [2:0 3:0 30 3] [11] 0 0
r 0.541670135 _3_ MAC  --- 9 cbr 230 [13a 3 2 800] [energy 2.751088 ei 0.227 es 0.000 et 0.007 er 0.015] ------- [2:0 3:0 30 3] [9] 1 0
s 0.541680135 _3_ MAC  --- 0 ACK 38 [0 2 0 0] [energy 2.751088 ei 0.227 es 0.000 et 0.007 er 0.015] 
N -t 0.541680 -n 2 -e 2.742605
N -t 0.541681 -n 4 -e 2.754227
N -t 0.541681 -n 5 -e 2.754227
N -t 0.541681 -n 0 -e 2.754227
N -t 0.541682 -n 1 -e 2.754227
r 0.541695135 _3_ AGT  --- 9 cbr 230 [13a 3 2 800] [energy 2.750810 ei 0.227 es 0.000 et 0.008 er 0.015] ------- [2:0 3:0 30 3] [9] 1 0
r 0.541984330 _2_ MAC  --- 0 ACK 38 [0 2 0 0] [energy 2.742605 ei 0.227 es 0.000 et 0.026 er 0.004] 
s 0.542194330 _2_ MAC  --- 0 RTS 44 [b7e 3 2 0] [energy 2.742605 ei 0.227 es 0.000 et 0.026 er 0.004] 
N -t 0.542195 -n 3 -e 2.750539
N -t 0.542195 -n 4 -e 2.753956
N -t 0.542195 -n 5 -e 2.753956
N -t 0.542196 -n 0 -e 2.753956
N -t 0.542196 -n 1 -e 2.753956
r 0.542546524 _3_ MAC  --- 0 RTS 44 [b7e 3 2 0] [energy 2.750539 ei 0.227 es 0.000 et 0.008 er 0.015] 
s 0.542556524 _3_ MAC  --- 0 CTS 38 [a44 2 0 0] [energy 2.750539 ei 0.227 es 0.000 et 0.008 er 0.015] 
N -t 0.542557 -n 2 -e 2.742037
N -t 0.542557 -n 4 -e 2.753800
N -t 0.542558 -n 5 -e 2.753799
N -t 0.542558 -n 0 -e 2.753799
N -t 0.542558 -n 1 -e 2.753799
r 0.542860718 _2_ MAC  --- 0 CTS 38 [a44 2 0 0] [energy 2.742037 ei 0.227 es 0.000 et 0.026 er 0.004] 
s 0.542870718 _2_ MAC  --- 10 cbr 288 [13a 3 2 800] [energy 2.742037 ei 0.227 es 0.000 et 0.026 er 0.004] ------- [2:0 3:0 30 3] [10] 0 0
N -t 0.542871 -n 3 -e 2.749104
N -t 0.542872 -n 4 -e 2.752643
N -t 0.542872 -n 5 -e 2.752643
N -t 0.542872 -n 0 -e 2.752643
N -t 0.542872 -n 1 -e 2.752643
s 0.545000000 _2_ AGT  --- 12 cbr 210 [0 0 0 0] [energy 2.739959 ei 0.227 es 0.000 et 0.029 er 0.004] ------- [2:0 3:0 32 0] [12] 0 0
r 0.545000000 _2_ RTR  --- 12 cbr 210 [0 0 0 0] [energy 2.739959 ei 0.227 es 0.000 et 0.029 er 0.004] ------- [2:0 3:0 32 0] [12] 0 0
s 0.545000000 _2_ RTR  --- 12 cbr 230 [0 0 0 0] [energy 2.739959 ei 0.227 es 0.000 et 0.029 er 0.004] ------- [2:0 3:0 30 3] [12] 0 0
r 0.545174913 _3_ MAC  --- 10 cbr 230 [13a 3 2 800] [energy 2.749104 ei 0.227 es 0.000 et 0.008 er 0.016] ------- [2:0 3:0 30 3] [10] 1 0
s 0.545184913 _3_ MAC  --- 0 ACK 38 [0 2 0 0] [energy 2.749104 ei 0.227 es 0.000 et 0.008 er 0.016] 
N -t 0.545185 -n 2 -e 2.739802
N -t 0.545186 -n 4 -e 2.752486
N -t 0.545186 -n 5 -e 2.752486
N -t 0.545186 -n 0 -e 2.752486
N -t 0.545186 -n 1 -e 2.752486
r 0.545199913 _3_ AGT  --- 10 cbr 230 [13a 3 2 800] [energy 2.748826 ei 0.227 es 0.000 et 0.008 er 0.016] ------- [2:0 3:0 30 3] [10] 1 0
r 0.545489107 _2_ MAC  --- 0 ACK 38 [0 2 0 0] [energy 2.739802 ei 0.227 es 0.000 et 0.029 er 0.005] 
s 0.546019107 _2_ MAC  --- 0 RTS 44 [b7e 3 2 0] [energy 2.739802 ei 0.227 es 0.000 et 0.029 er 0.005] 
N -t 0.546019 -n 3 -e 2.748411
N -t 0.546020 -n 4 -e 2.752072
N -t 0.546020 -n 5 -e 2.752072
N -t 0.546020 -n 0 -e 2.752072
N -t 0.546021 -n 1 -e 2.752072
r 0.546371301 _3_ MAC  --- 0 RTS 44 [b7e 3 2 0] [energy 2.748411 ei 0.227 es 0.000 et 0.008 er 0.016] 
s 0.546381301 _3_ MAC  --- 0 CTS 38 [a44 2 0 0] [energy 2.748411 ei 0.227 es 0.000 et 0.008 er 0.016] 
N -t 0.546381 -n 2 -e 2.739090
N -t 0.546382 -n 4 -e 2.751915
N -t 0.546382 -n 5 -e 2.751915
N -t 0.546383 -n 0 -e 2.751915
N -t 0.546383 -n 1 -e 2.751915
r 0.546685496 _2_ MAC  --- 0 CTS 38 [a44 2 0 0] [energy 2.739090 ei 0.227 es 0.000 et 0.029 er 0.005] 
s 0.546695496 _2_ MAC  --- 11 cbr 288 [13a 3 2 800] [energy 2.739090 ei 0.227 es 0.000 et 0.029 er 0.005] ------- [2:0 3:0 30 3] [11] 0 0
N -t 0.546696 -n 3 -e 2.746977
N -t 0.546697 -n 4 -e 2.750759
N -t 0.546697 -n 5 -e 2.750759
N -t 0.546697 -n 0 -e 2.750758
N -t 0.546697 -n 1 -e 2.750758
s 0.548750000 _2_ AGT  --- 13 cbr 210 [0 0 0 0] [energy 2.737012 ei 0.227 es 0.000 et 0.031 er 0.005] ------- [2:0 3:0 32 0] [13] 0 0
r 0.548750000 _2_ RTR  --- 13 cbr 210 [0 0 0 0] [energy 2.737012 ei 0.227 es 0.000 et 0.031 er 0.005] ------- [2:0 3:0 32 0] [13] 0 0
s 0.548750000 _2_ RTR  --- 13 cbr 230 [0 0 0 0] [energy 2.737012 ei 0.227 es 0.000 et 0.031 er 0.005] ------- [2:0 3:0 30 3] [13] 0 0
r 0.548999690 _3_ MAC  --- 11 cbr 230 [13a 3 2 800] [energy 2.746977 ei 0.227 es 0.000 et 0.009 er 0.017] ------- [2:0 3:0 30 3] [11] 1 0
s 0.549009690 _3_ MAC  --- 0 ACK 38 [0 2 0 0] [energy 2.746977 ei 0.227 es 0.000 et 0.009 er 0.017] 
N -t 0.549010 -n 2 -e 2.736855
N -t 0.549011 -n 4 -e 2.750602
N -t 0.549011 -n 5 -e 2.750602
N -t 0.549011 -n 0 -e 2.750602
N -t 0.549011 -n 1 -e 2.750602
r 0.549024690 _3_ AGT  --- 11 cbr 230 [13a 3 2 800] [energy 2.746698 ei 0.227 es 0.000 et 0.009 er 0.017] ------- [2:0 3:0 30 3] [11] 1 0
r 0.549313884 _2_ MAC  --- 0 ACK 38 [0 2 0 0] [energy 2.736855 ei 0.227 es 0.000 et 0.031 er 0.005] 